# vtk DataFile Version 1.0
vtk file 110m_1:A:A_model1
ASCII
DATASET POLYDATA

POINTS 10426 double
2.746000 -4.444000 -22.062000
3.805000 -4.530000 -21.854000
1.869000 -4.676000 -20.988000
4.844000 -4.697000 -20.861000
1.659000 -4.574000 -19.921000
5.208000 -4.568000 -20.063000
1.784000 -4.646000 -18.892000
5.940000 -4.617000 -18.982000
1.549000 -4.462000 -18.189000
6.333000 -4.546000 -18.060000
-9.221000 -4.458000 -17.049000
-7.307000 -4.401000 -16.864000
-0.225000 -4.464000 -17.056000
7.032000 -4.747000 -17.015000
-9.682000 -4.466000 -15.997000
-7.194000 -4.637000 -15.799000
-0.814000 -4.412000 -16.082000
9.688000 -4.694000 -15.840000
-10.074000 -4.361000 -14.950000
-6.798000 -4.722000 -15.024000
-5.049000 -4.431000 -15.076000
-3.305000 -4.555000 -14.926000
-1.136000 -4.458000 -15.207000
9.896000 -4.546000 -14.992000
-11.050000 -4.397000 -13.786000
9.935000 -4.546000 -13.992000
-11.434000 -4.632000 -12.843000
10.107000 -4.446000 -13.092000
-11.317000 -4.546000 -11.992000
10.015000 -4.596000 -12.126000
-10.789000 -4.614000 -10.928000
9.154000 -4.488000 -10.940000
-10.385000 -4.597000 -9.924000
9.080000 -4.546000 -9.992000
-9.840000 -4.572000 -9.076000
9.267000 -4.497000 -8.992000
-9.032000 -4.617000 -7.992000
9.132000 -4.630000 -8.037000
-8.720000 -4.546000 -6.992000
6.810000 -4.533000 -6.894000
-8.941000 -4.546000 -5.992000
6.061000 -4.649000 -5.785000
-9.223000 -4.446000 -5.092000
6.137000 -4.726000 -5.047000
-9.442000 -4.427000 -4.215000
9.098000 -4.644000 -3.789000
-13.221000 -4.472000 -3.038000
1.134000 -4.306000 -3.032000
4.775000 -4.658000 -2.811000
9.283000 -4.490000 -2.779000
-13.628000 -4.319000 -2.094000
-0.975000 -4.475000 -1.901000
5.202000 -4.475000 -1.954000
9.215000 -4.646000 -1.892000
-12.996000 -4.522000 -1.073000
-1.682000 -4.488000 -0.923000
5.821000 -4.690000 -0.949000
9.196000 -4.451000 -0.992000
-12.814000 -4.568000 -0.083000
-1.900000 -4.546000 0.008000
6.976000 -4.701000 -0.090000
9.107000 -4.772000 -0.109000
-13.766000 -4.296000 0.943000
-2.110000 -4.340000 1.066000
7.011000 -4.569000 0.824000
10.948000 -4.713000 1.013000
-15.208000 -4.475000 2.047000
-2.794000 -4.457000 2.011000
4.104000 -4.409000 1.989000
11.858000 -4.696000 2.112000
-15.977000 -4.469000 2.992000
-4.633000 -4.499000 3.259000
3.751000 -4.553000 2.841000
12.549000 -4.528000 3.202000
-16.079000 -4.598000 3.841000
-4.717000 -4.546000 4.008000
3.795000 -4.698000 3.936000
12.757000 -4.465000 4.008000
-15.978000 -4.576000 4.824000
-4.708000 -4.637000 4.891000
3.572000 -4.607000 4.826000
12.644000 -4.321000 4.887000
-15.123000 -4.622000 5.832000
-4.742000 -4.574000 6.079000
0.212000 -4.521000 6.103000
1.075000 -4.775000 5.998000
2.852000 -4.395000 5.837000
10.254000 -4.551000 6.256000
-12.086000 -4.704000 6.989000
-4.614000 -4.733000 6.971000
-0.988000 -4.468000 6.991000
10.006000 -4.466000 7.174000
-11.838000 -4.628000 7.848000
9.692000 -4.572000 8.216000
-12.011000 -4.614000 8.836000
9.738000 -4.580000 9.174000
-12.743000 -4.316000 9.959000
9.986000 -4.681000 10.020000
13.831000 -4.495000 9.886000
15.743000 -4.426000 10.087000
-12.361000 -4.679000 11.061000
11.270000 -4.795000 10.960000
12.878000 -4.556000 10.823000
16.192000 -4.394000 11.118000
-12.108000 -4.646000 12.108000
15.924000 -4.373000 12.124000
-11.822000 -4.546000 12.966000
14.912000 -4.391000 13.233000
-11.093000 -4.759000 14.020000
14.591000 -4.351000 13.972000
-8.861000 -4.713000 14.954000
14.122000 -4.475000 14.944000
-4.722000 -4.588000 15.986000
6.970000 -4.475000 16.110000
9.878000 -4.784000 15.934000
12.812000 -4.487000 15.977000
-3.020000 -4.594000 17.035000
6.397000 -4.303000 17.091000
-2.396000 -4.700000 18.069000
6.697000 -4.669000 18.057000
-1.970000 -4.631000 19.173000
7.100000 -4.613000 19.200000
-1.394000 -4.631000 20.229000
7.526000 -4.676000 20.176000
-0.739000 -4.475000 21.017000
7.496000 -4.571000 20.813000
-0.354000 -4.657000 22.021000
6.735000 -4.597000 21.820000
-0.007000 -4.610000 22.808000
5.882000 -4.447000 22.980000
-2.252000 -4.588000 25.001000
-0.029000 -4.559000 25.131000
-2.891000 -4.431000 25.844000
0.805000 -4.379000 26.167000
-2.861000 -4.481000 26.801000
0.630000 -4.302000 27.099000
3.089000 19.348000 -8.965000
4.052000 19.355000 -9.082000
-5.320000 19.483000 -7.902000
-4.311000 19.262000 -7.961000
-0.253000 19.482000 -8.006000
4.861000 19.407000 -8.078000
-5.876000 19.391000 -6.825000
-4.049000 19.303000 -7.192000
-1.202000 19.624000 -7.024000
5.091000 19.428000 -7.210000
-5.778000 19.394000 -5.915000
-4.208000 19.421000 -6.227000
-1.829000 19.550000 -5.976000
5.847000 19.251000 -6.036000
-3.875000 19.357000 -4.853000
5.728000 19.403000 -5.160000
-3.737000 19.320000 -3.932000
2.135000 19.455000 -3.889000
-3.422000 19.383000 -2.949000
1.821000 19.454000 -2.992000
-3.280000 19.554000 -2.092000
1.710000 19.606000 -2.078000
-3.458000 19.476000 -1.217000
1.861000 19.441000 -1.110000
-3.792000 19.401000 -0.110000
2.294000 19.484000 -0.092000
-3.630000 19.440000 0.855000
2.181000 19.653000 0.846000
-1.272000 19.469000 2.194000
1.077000 19.597000 1.905000
-15.614000 -4.524000 2.461000
-15.669000 -4.329000 5.629000
-14.419000 -4.690000 1.456000
-14.488000 -4.479000 6.105000
-13.409000 -4.577000 -2.605000
-13.498000 -4.402000 -1.593000
-13.304000 -4.671000 0.816000
-13.627000 -4.398000 6.330000
-12.426000 -4.514000 -3.426000
-12.729000 -4.613000 6.557000
-12.376000 -4.694000 9.497000
-12.590000 -4.458000 10.738000
-11.424000 -4.446000 -3.528000
-11.392000 -4.372000 13.598000
-10.635000 -4.752000 -14.408000
-10.522000 -4.441000 -10.343000
-10.658000 -4.704000 -3.555000
-10.386000 -4.426000 14.277000
-9.406000 -4.561000 -16.323000
-9.481000 -4.477000 -8.724000
-9.771000 -4.482000 -3.858000
-9.604000 -4.546000 14.576000
-8.503000 -4.375000 -17.553000
-8.437000 -4.379000 15.196000
-7.634000 -4.465000 -17.296000
-7.624000 -4.646000 15.445000
-6.350000 -4.594000 -14.830000
-6.609000 -4.431000 15.828000
-5.485000 -4.750000 -14.712000
-5.488000 -4.617000 15.853000
-4.466000 -4.285000 -15.343000
-4.316000 -4.642000 2.722000
-4.330000 -4.553000 7.177000
-4.473000 -4.388000 16.117000
-3.438000 -4.303000 -15.082000
-3.390000 -4.546000 2.199000
-3.453000 -4.582000 7.629000
-3.735000 -4.455000 16.475000
-2.521000 -4.577000 -14.684000
-2.463000 -4.722000 1.749000
-2.364000 -4.620000 7.698000
-2.575000 -4.604000 17.746000
-2.434000 -4.764000 25.333000
-2.516000 -4.399000 27.435000
-1.502000 -4.768000 -14.738000
-1.472000 -4.577000 -1.382000
-1.476000 -4.668000 7.361000
-1.570000 -4.297000 19.825000
-1.506000 -4.404000 24.578000
-1.697000 -4.501000 27.766000
-0.434000 -4.684000 -16.709000
-0.416000 -4.546000 -2.184000
-0.473000 -4.546000 6.597000
-0.512000 -4.457000 21.483000
-0.485000 -4.501000 24.692000
-0.691000 -4.623000 27.621000
0.586000 -4.700000 -17.446000
0.533000 -4.697000 -2.386000
0.481000 -4.721000 5.963000
0.523000 -4.591000 23.447000
0.434000 -4.530000 25.550000
0.233000 -4.475000 27.284000
1.337000 -4.628000 -17.878000
1.657000 -4.484000 -3.329000
1.455000 -4.385000 6.145000
1.476000 -4.480000 23.792000
2.553000 -4.759000 -21.746000
2.547000 -4.527000 -3.771000
2.378000 -4.713000 6.112000
2.376000 -4.646000 23.455000
3.401000 -4.298000 -22.120000
3.676000 -4.463000 -3.765000
3.418000 -4.786000 5.303000
3.459000 -4.443000 23.277000
4.474000 -4.363000 -21.525000
4.462000 -4.380000 -3.407000
4.696000 -4.504000 1.713000
4.376000 -4.646000 23.493000
5.513000 -4.472000 -19.609000
5.528000 -4.608000 -1.194000
5.642000 -4.548000 1.594000
5.316000 -4.618000 23.352000
6.656000 -4.361000 -17.599000
6.356000 -4.643000 -6.447000
6.543000 -4.685000 -4.808000
6.343000 -4.582000 -0.380000
6.540000 -4.566000 1.566000
6.555000 -4.554000 16.761000
6.453000 -4.442000 17.700000
6.317000 -4.584000 22.319000
7.636000 -4.533000 -16.852000
7.331000 -4.718000 -7.361000
7.547000 -4.658000 -4.537000
7.570000 -4.546000 15.616000
7.400000 -4.506000 19.752000
7.301000 -4.517000 21.140000
8.493000 -4.507000 -16.749000
8.274000 -4.665000 -7.562000
8.554000 -4.540000 -4.537000
8.445000 -4.731000 15.381000
9.380000 -4.528000 -16.294000
9.616000 -4.654000 -11.450000
9.585000 -4.533000 0.288000
9.293000 -4.451000 15.794000
10.411000 -4.546000 0.760000
10.472000 -4.655000 5.867000
10.608000 -4.580000 10.539000
10.335000 -4.451000 16.125000
11.473000 -4.379000 1.399000
11.404000 -4.548000 5.612000
11.674000 -4.633000 11.051000
11.404000 -4.531000 16.205000
12.379000 -4.304000 2.810000
12.291000 -4.569000 5.213000
12.409000 -4.666000 11.167000
12.344000 -4.747000 16.099000
13.507000 -4.595000 10.235000
13.324000 -4.662000 15.725000
14.651000 -4.466000 9.699000
14.403000 -4.551000 14.233000
15.477000 -4.395000 9.755000
15.362000 -4.553000 12.509000
-5.657000 19.427000 -7.689000
-5.295000 19.445000 -5.425000
-4.760000 19.293000 -8.137000
-4.503000 19.421000 -5.724000
-3.360000 19.547000 -5.376000
-3.526000 19.520000 -3.381000
-3.564000 19.285000 -0.830000
-3.359000 19.606000 1.184000
-2.542000 19.559000 -5.584000
-2.624000 19.354000 1.567000
-1.606000 19.237000 -6.605000
-1.748000 19.540000 1.888000
-0.580000 19.227000 -7.695000
-0.518000 19.638000 2.676000
0.367000 19.454000 -8.169000
0.565000 19.326000 2.419000
1.326000 19.516000 -8.191000
1.628000 19.477000 1.586000
2.326000 19.349000 -8.549000
2.611000 19.289000 -4.260000
3.520000 19.262000 -9.213000
3.476000 19.529000 -4.540000
4.395000 19.507000 -8.721000
4.591000 19.279000 -4.361000
5.378000 19.493000 -6.596000
5.490000 19.274000 -4.668000
-13.265000 -4.669000 -1.952000
-13.345000 -2.006000 -2.131000
-12.475000 -15.166000 -1.793000
-12.582000 -12.769000 -2.076000
-12.506000 -5.139000 -1.892000
-12.448000 -1.204000 -2.030000
-11.305000 -17.720000 -1.870000
-11.614000 -12.140000 -2.195000
-11.571000 -9.294000 -1.925000
-11.663000 -0.721000 -2.023000
-10.580000 -18.370000 -1.892000
-10.522000 0.014000 -1.918000
-9.522000 -21.210000 -1.924000
-9.641000 0.171000 -2.056000
-9.552000 9.882000 -2.036000
-9.552000 12.778000 -2.224000
-8.531000 -21.978000 -1.892000
-8.616000 0.860000 -2.138000
-8.496000 5.769000 -1.933000
[...]
POINT_DATA 10426
SCALARS Potential double
LOOKUP_TABLE default
-1.349502
-0.270468
-0.608489
1.469696
-0.309895
1.474479
-0.417997
2.206139
-0.556285
2.711056
17.048151
16.584048
-2.633081
4.059284
18.697214
17.068335
-2.391370
7.633429
15.405035
16.551583
8.055128
0.820975
-1.465887
7.156346
10.488933
4.572371
6.838690
1.824178
6.586959
-1.290566
5.136468
-1.558265
4.800294
0.000813
4.183330
1.527519
4.274915
2.688239
4.978127
0.938343
5.324217
0.604908
5.170204
1.353567
3.887459
5.632579
-6.390957
8.417293
6.682596
5.094704
-7.783460
8.320836
7.360109
5.012300
-6.604547
8.190257
7.490655
3.930271
-4.882346
7.327320
7.893427
3.572739
-2.150835
7.971142
8.166704
5.640142
2.887879
9.588138
11.176156
4.393313
7.175229
6.264831
9.805164
2.970648
6.121465
7.263476
7.539388
3.934468
5.396924
7.829417
5.418724
7.850461
4.370990
7.850074
8.698189
9.188104
5.596160
15.662206
-0.703114
7.328834
8.154719
17.691601
-2.384090
17.818417
-5.666092
16.300975
-8.628677
14.566068
14.232262
9.740742
-5.872245
17.226867
14.514657
10.666085
-4.905906
10.952381
-5.827696
8.680709
-5.492242
5.520188
-5.578343
-0.694177
-4.893340
1.959714
1.576385
-1.218090
-3.353036
2.165281
-4.653561
1.865807
-5.564999
-0.942865
-4.999941
-2.048838
-1.684471
-2.621085
-0.046264
-2.405690
0.149625
0.697307
10.432048
5.582861
8.418414
5.344256
9.226324
5.293222
-3.935911
-0.275337
2.989175
1.900184
-3.348523
2.698205
3.005329
0.936651
-1.854055
5.316077
1.746611
-0.113607
-1.110880
17.147019
-2.279154
13.556837
-4.286336
9.964268
-4.282579
10.748735
-1.697402
11.433559
-1.128413
8.950122
-1.657295
6.344401
-2.128061
3.963348
-1.211947
1.522539
4.929417
5.124696
0.321462
3.186641
-7.229632
-8.126977
-2.885530
1.594120
-4.809581
0.143846
-7.622407
-7.651103
-1.471229
-6.336881
12.074695
5.099817
0.952034
-5.509311
15.563510
4.139954
3.367371
-5.199723
17.221607
-5.822925
17.493018
-6.927272
16.175582
-8.370732
10.186123
-6.355126
5.564316
6.522602
8.480200
-4.000670
1.745846
7.771081
8.787978
-3.083428
-0.907471
8.591483
7.955342
-4.784332
8.796887
9.844850
-1.258552
8.055465
8.144152
-5.588130
10.342668
9.191857
-3.028414
8.002618
8.224064
-0.797119
6.284807
9.632353
-2.669100
9.496350
10.317653
0.972339
5.713893
6.855868
-1.044501
7.437536
8.583653
0.187505
-0.707361
6.713068
6.633813
-0.467356
-1.296149
6.796715
5.066952
-0.137389
0.377283
6.608768
11.760835
1.364769
1.681267
9.304464
10.881433
1.623897
3.827327
0.827152
1.799575
8.326019
8.532767
1.742878
2.059605
-0.763333
5.530112
1.592389
3.159659
1.873577
-1.855452
-2.672644
6.630547
2.488132
4.485115
1.966836
6.923240
-2.687774
2.883267
2.052193
4.748131
13.236476
14.096391
2.187591
5.882579
11.179668
16.620514
1.905932
3.403401
8.831187
13.638194
-0.390701
13.387558
-2.428067
11.848970
2.814291
11.302773
10.415277
3.167315
0.335883
2.361575
-0.329440
-2.294484
-4.727913
-1.340468
-1.861164
-2.222593
-2.115592
-0.399150
-1.363887
-2.173123
-1.109433
-3.673673
0.139425
-3.617867
1.979628
-4.701477
9.243983
-2.505391
8.081994
1.165141
8.001946
10.230908
10.438197
-7.478001
-4.584357
-4.408709
-7.683407
-5.762611
-1.263378
-2.704128
-8.129220
-2.134899
-0.079782
-1.775359
1.292475
-1.684563
2.527652
1.770172
0.294531
-1.508570
3.143894
0.857629
1.179079
1.634865
-4.638640
-0.573857
4.584026
1.528389
-2.987722
1.084864
0.085654
3.309165
-1.616379
4.067073
-3.352745
4.516900
7.942537
5.694143
-3.465179
5.552148
1.962479
2.619584
9.100448
7.349715
1.528059
1.206506
2.901443
5.719474
8.753968
7.293750
2.482664
1.005492
3.375758
6.847312
2.981992
3.230918
4.568274
8.046894
4.826214
7.330142
6.367880
8.521748
12.499584
6.578808
8.321628
9.476489
10.562413
6.808336
7.904641
7.652533
9.859093
6.732724
7.259276
5.413903
13.775854
5.621864
4.602419
7.387718
16.569742
5.978479
9.859657
7.516709
8.555152
7.404092
0.007584
0.023283
4.697650
4.711767
0.865156
0.172365
2.469578
5.441884
0.998156
0.593535
3.990847
5.180331
-0.053732
1.051711
3.996762
5.479354
-0.390879
0.406856
3.784860
5.058316
1.146955
-2.548609
3.426192
-0.222047
1.469198
-2.520354
-1.410330
-0.335334
3.328234
-1.114645
5.698494
4.151986
1.993560
-1.442937
6.434643
5.058884
5.344332
5.444439
5.307520
5.378929
3.957956
4.169972
5.025607
2.302618
-2.211128
-3.425715
2.874958
1.226900
-1.783066
-1.283427
0.590116
0.953521
2.369777
-0.423977
-2.171915
0.621681
0.920056
-1.784292
-1.325903
-2.044639
0.491238
-1.817608
1.624633
-0.593470
2.541213
17.378635
12.739167
0.515818
3.391765
18.461305
10.273458
0.628282
7.493166
20.910734
10.285996
7.228597
4.688146
0.397116
8.163415
16.479971
6.471082
12.903229
4.988129
9.168972
3.418079
6.505966
1.695514
4.787950
-0.162465
4.087878
0.450368
2.770396
2.275188
2.890432
3.421813
4.741072
3.581113
5.882477
3.419438
7.014206
3.995765
6.213598
6.226785
7.036737
4.449807
-7.092452
8.118795
6.789571
4.191907
-7.776571
8.642928
6.330760
4.295894
-7.625239
7.861837
7.338834
2.287265
-6.982315
7.661241
7.592589
2.090012
-2.498950
8.304797
9.632278
6.342024
2.712508
7.817757
9.290366
5.074727
10.967920
4.615355
9.378507
2.625437
7.765999
5.312491
8.772405
4.768600
6.649644
5.984109
7.578038
8.438900
3.933890
8.275890
6.109881
12.285029
0.775290
13.293407
-3.365880
15.617235
15.863912
10.885502
-7.462791
9.102732
-10.691329
8.931595
-10.358851
8.473762
-7.572740
9.548278
-9.351255
12.840652
-5.483437
11.966879
-4.741008
2.469347
-5.983639
-5.795473
-4.932566
1.612478
2.324684
5.001675
-3.311492
1.706982
-4.009100
1.443967
-5.024485
-0.204728
-5.159689
-2.337580
-3.158859
-3.471509
-2.251939
-2.118394
0.260511
-4.571025
-1.312186
-0.895629
5.098770
-3.182216
7.887787
1.463714
9.481855
3.503617
14.085771
3.826298
9.134958
5.420804
-3.873387
-4.082097
-3.208301
-0.986068
-1.645495
2.777119
-3.528851
5.959051
-4.328915
7.792728
-2.019901
9.367591
-0.561768
11.473727
-0.464134
8.824240
-0.599036
6.144691
-0.495641
3.378078
-0.244925
1.966210
11.292514
6.751066
5.245852
4.864683
0.661975
2.490917
-6.387109
-1.136086
-4.567520
-9.869489
-2.384233
-9.231496
11.015284
5.412595
2.492630
-6.512411
16.814706
2.684346
7.138434
-5.081302
17.711395
-4.185908
14.774280
-5.039737
9.963903
-6.019930
9.331987
-6.348213
4.981017
3.885983
6.480127
-4.107638
3.573641
6.424427
8.333531
-3.754688
1.851355
8.427486
8.961805
-4.227573
7.978397
12.178462
0.801324
8.853233
8.002001
-6.156206
2.542424
7.891986
-0.600462
7.807027
5.926048
6.702547
-0.464946
8.214427
7.130733
6.538713
-1.861158
-1.458466
-0.076457
7.374711
6.521577
-0.258616
2.234237
4.586294
-2.369388
6.190414
5.704456
-3.781008
-2.042194
6.821540
9.592041
-2.950812
-0.973600
6.123596
9.235066
-0.337708
1.383960
-0.572197
4.470005
1.894666
0.617376
-3.524255
5.547229
1.593797
7.111466
1.918609
7.542010
0.232898
1.598681
3.334241
3.317026
3.900901
2.776068
3.594718
4.027359
4.930773
6.223733
12.089239
14.747429
4.387722
3.729017
11.625370
12.085653
0.389107
10.687623
-0.534220
9.934514
4.956236
9.723886
15.141016
8.339901
9.280556
-0.547435
-0.616219
-3.586758
-0.409686
-1.593716
-0.211056
-4.203989
0.140844
-4.781417
1.094940
-3.183291
11.778065
6.722047
4.365102
5.246399
8.814257
-7.272052
-5.527961
-3.971519
-7.257449
-5.134826
-2.377445
-3.549822
-8.841964
-4.358518
-0.448679
-3.393933
0.682103
-0.065607
2.322389
-1.117198
2.112687
-0.102143
0.546823
-0.345043
3.318584
1.153213
-0.483750
-2.631712
0.298987
2.869605
-0.557230
4.216869
-2.209359
4.884858
-3.077169
6.553351
-1.451369
-0.987118
0.061226
7.971766
1.368610
3.049017
9.376354
7.312310
1.610940
3.880396
2.338146
6.427793
7.154783
7.292455
2.525041
4.680157
3.179609
7.180634
3.347266
5.854978
3.502529
8.537108
4.666994
5.598941
5.464153
8.040670
8.310133
8.599833
9.222504
7.110414
8.247688
11.054474
9.613778
8.168536
9.033384
9.101531
9.447255
5.022452
8.757534
8.570171
5.560604
9.306474
11.993863
8.753092
7.932610
7.284066
7.073785
7.716678
1.328471
2.414632
0.828570
4.703170
2.611365
5.515355
3.552532
5.387877
-1.397245
1.288402
3.400005
1.145593
2.907193
-0.454187
0.805495
1.283742
3.068576
1.359749
4.272137
1.102034
4.230631
1.310615
2.593283
4.187202
1.476690
3.879269
-5.371813
-6.423709
3.244485
3.118815
-2.005758
-7.163164
2.858869
2.331400
-1.568291
-6.276522
0.206649
0.951622
2.726436
1.796481
-0.220163
-1.397116
0.282886
1.486653
2.200997
-1.200538
-1.157327
5.560371
3.512029
-1.537006
-0.120515
9.281261
4.121901
-1.185833
1.009611
10.065278
3.883078
-0.340656
2.296596
15.030383
2.531203
1.563501
3.899717
16.039993
2.158052
2.961185
4.756317
16.136438
3.576749
3.103022
7.334193
14.222120
5.856321
11.278574
5.113261
6.678259
4.186652
4.629914
2.615529
3.452907
0.397608
1.654619
1.092091
0.755517
3.667077
2.200466
4.459842
4.467484
3.525214
6.145531
3.184333
11.528011
2.680032
6.312538
5.835017
6.876495
4.637433
-5.250856
7.767780
6.836876
4.685712
-6.586270
9.361810
5.532156
4.367754
-7.777249
8.547475
4.142819
4.574150
-6.914203
8.599294
9.066178
5.375678
-2.868723
9.391877
8.906831
5.757002
3.824717
8.474526
9.781897
5.825548
6.641336
8.409630
8.598121
4.526388
7.191476
8.087874
8.078451
5.260239
10.290951
6.145828
7.125787
7.197041
6.931798
8.246756
3.607208
5.492057
5.278019
6.956902
0.608040
9.835746
-5.357891
7.530975
-9.946506
7.620749
-12.899877
7.452020
-12.806275
7.366127
-12.080378
9.014901
-12.353379
11.430794
-6.027340
11.035905
-4.416737
4.050666
-3.964209
8.072887
-3.281638
-3.282751
-3.418817
0.762831
-3.667780
1.083862
-5.821816
0.054672
-7.378307
-1.844361
-4.602431
-2.624729
-1.648759
-3.306669
1.237106
-5.650282
3.482594
-3.431836
5.285183
-0.300230
7.538956
1.084637
10.617353
2.442640
7.248974
5.128952
-2.938765
-2.542417
-0.974240
1.894022
-0.667586
5.539459
-0.385336
7.084544
0.885214
6.771192
0.413601
8.141580
0.494278
6.831050
0.637263
5.003335
0.742297
3.350185
0.538023
2.160769
6.938756
11.892089
5.118458
6.016201
0.734399
2.535616
-5.933854
-2.540037
-3.787071
-12.890445
0.905133
-10.974986
9.047456
4.387120
9.105719
-7.817843
14.563970
2.304939
8.541722
-3.163945
14.673339
-2.561806
14.792668
-2.498489
7.031650
-3.568652
4.830421
-3.874770
3.983294
3.767403
3.744303
-3.432618
3.621348
6.746843
6.698361
-4.049812
3.690806
7.187450
7.239019
-4.791862
0.379448
9.058908
3.050746
9.368153
9.085469
6.844967
3.261203
7.758162
8.165053
6.545566
2.479119
7.188836
5.830779
6.227328
-1.363957
-0.634307
0.414335
6.730354
9.291626
8.587032
6.062115
-1.646368
0.040382
3.231744
-1.772255
6.296412
8.657703
6.794251
5.702627
-5.837623
-1.424257
6.836462
7.794237
-4.786790
-0.239975
5.657841
4.885548
-2.453860
1.727380
-2.846916
4.179061
-1.444331
6.108802
0.395230
6.941834
2.514334
7.283095
1.680765
1.853734
8.357443
2.940098
2.788678
2.522336
8.566879
4.265442
4.292661
3.199506
8.386746
3.855645
6.296931
4.577416
7.085846
8.756217
4.054335
4.335287
5.051374
7.397976
3.317906
7.992452
6.693657
8.782448
14.245988
8.016438
7.573752
0.548330
0.989478
-0.664916
0.767853
-3.650585
1.061354
-3.651873
2.574784
-1.130628
7.933247
-6.090748
-6.922209
-2.707314
-5.044290
-9.812890
-9.145303
-3.170970
-5.058870
-2.699570
-4.573545
1.806921
-1.600741
-3.416761
-0.797710
-0.921177
-1.177936
2.159045
-1.278144
1.376875
1.573497
-2.390587
-0.116526
3.347081
0.767607
0.654957
0.321678
-2.896372
-0.236152
3.789057
-0.836343
-1.000961
-1.086591
4.363920
-2.630687
5.118446
-3.284554
5.083794
0.016118
6.501689
1.344180
4.775105
6.951273
8.069236
2.123971
6.661920
2.068984
8.191141
2.847002
5.108191
3.573648
7.804817
3.859054
6.629559
7.169099
5.327914
6.202143
8.095617
9.524081
6.490853
5.586934
11.712675
12.028404
9.492022
4.069790
10.222571
7.861348
8.150540
4.048085
10.918711
6.121744
9.420008
5.261012
8.507531
6.529652
7.115814
6.988862
8.689992
0.890268
2.080283
0.441461
3.622176
2.501602
5.796829
3.356973
2.546279
0.524162
1.747703
2.683648
2.327921
1.661560
-2.169697
0.885219
-1.574703
-1.344941
4.526768
3.237497
5.403826
3.400182
4.317981
3.048379
1.902882
1.061348
-0.296497
-0.026305
-8.092665
0.695329
-8.142972
-0.070530
-5.340777
-1.014744
-2.156287
-1.081448
6.568410
3.744185
1.401604
1.385823
6.493337
3.208068
0.735957
1.992978
9.195219
3.886049
0.818794
2.693657
11.966191
4.710341
0.853383
3.730265
15.824021
3.433780
1.732535
3.331033
13.474376
3.634706
5.751416
2.994996
12.414521
4.065623
5.985061
5.931700
10.547818
6.315472
7.783615
4.985944
5.283369
3.844896
3.383375
3.305140
0.854268
1.907754
2.024265
3.319352
0.155150
-0.047042
1.777620
2.495362
1.209971
1.140026
1.859647
4.406877
2.776614
4.360550
4.885319
3.525387
5.682719
2.871313
10.835998
2.939385
4.413127
3.763666
-0.325380
7.105226
7.833921
3.482791
-3.752770
7.036501
9.007158
3.206921
-6.758334
7.409457
8.377761
2.920649
-6.659445
8.033350
7.510978
3.721323
-5.693710
7.387401
7.571567
4.632043
-3.350874
5.186396
5.646404
6.931389
0.176241
5.380134
6.575031
5.257949
8.677379
5.451854
1.042773
6.331198
-3.721953
7.317502
-8.384224
5.944582
-11.252460
6.163985
-13.726373
7.053031
-13.292349
6.704248
-13.401921
8.468543
-9.776302
8.205040
-5.923789
9.285348
-4.038211
6.030657
-2.866764
-2.739691
-2.375504
9.892661
4.981600
4.443662
-1.788112
-2.560687
-3.067203
14.420650
-4.162880
0.958474
-6.342394
0.001263
-5.928966
-1.895961
-2.087365
-2.471171
-0.042832
-4.579927
1.187468
-6.629124
2.736332
-5.654458
4.046884
-2.328804
5.746659
-0.255194
7.200998
2.036601
1.461196
4.198544
1.974210
5.550756
5.483732
7.821661
6.848533
6.130626
8.724645
3.268871
-5.740928
-6.141526
2.028029
-1.337949
-1.995001
-4.833552
-1.519939
-6.723234
1.909576
-12.859551
-12.382128
-12.211729
13.093564
1.916952
8.727023
-4.303507
15.973565
2.254451
6.202716
-1.977911
13.859932
-1.524816
10.320756
-1.743348
5.457700
-2.347491
4.528071
-3.203004
3.982584
-2.963264
3.488887
4.721998
5.185537
7.052072
6.900509
-2.632001
5.768493
7.239225
8.893688
-3.561390
-3.437286
5.825516
5.438663
3.568667
2.102393
6.262094
8.325199
5.401917
4.372103
2.414524
2.139199
6.385199
9.029204
4.764327
2.632038
0.044079
1.622814
8.413247
8.591632
3.848557
0.647908
0.957828
0.931400
8.979629
8.095181
1.103731
0.482882
7.449044
7.427560
-6.930408
1.092136
-8.389402
2.176029
-3.232987
3.602393
-2.503686
4.219234
-1.129494
5.958478
1.004620
5.453017
2.670945
5.875141
3.487896
2.322976
10.100863
3.634182
11.917221
2.958097
11.871678
3.768075
3.645523
5.022853
6.466108
5.379864
6.534104
3.412047
3.400445
7.337294
4.575438
5.940358
4.404089
6.603147
9.117747
6.834128
6.191893
1.357635
2.735980
1.974482
3.783648
3.111418
5.543575
2.966163
2.164614
1.879642
1.528618
1.257250
0.961106
0.931699
0.566049
-1.444656
-4.341185
-7.621884
-8.193227
0.298019
-5.500273
-1.408869
-4.430652
4.076264
-2.653372
-1.868488
-2.100236
-1.492822
0.087276
2.998387
1.229791
-3.421308
-2.818662
3.973499
-0.262475
-2.413324
-3.065356
4.553313
0.366245
-0.403982
-3.852625
3.366505
-4.057030
2.942384
-4.375073
5.083554
-1.116678
6.231985
0.440052
5.068209
7.543809
9.420011
1.562197
5.076346
6.899975
7.767693
2.353179
5.666404
7.347092
6.761968
2.830979
6.972334
10.426147
7.038189
3.093242
8.951112
11.084233
9.554734
2.447858
11.987013
14.100361
10.665061
1.625586
12.439666
8.259417
10.007742
0.944525
11.900500
8.828675
11.310066
2.942450
9.747592
4.750429
8.450607
3.483103
9.638756
3.368474
7.563746
2.359699
7.672808
2.019376
6.254098
2.806606
3.880793
1.973797
2.415956
1.548843
-0.475230
-1.582164
-2.314972
-2.995821
10.353969
2.532218
9.197109
2.723129
2.198907
2.778985
7.138280
2.596485
2.070316
2.588646
4.080930
1.090199
1.172970
1.488421
-1.455278
-1.274517
-6.094080
-3.403646
-8.255730
-3.650432
-7.240434
-4.755999
5.085549
3.411526
3.456454
3.725802
6.527325
2.919208
3.613959
4.066208
6.982849
3.894540
2.281864
4.107372
11.419875
5.190918
0.700509
6.408444
13.791655
6.573523
1.532672
4.259893
12.752696
7.170154
5.765344
2.238426
9.942455
6.339211
6.706685
5.971385
7.831637
4.550712
4.904698
4.214258
3.209003
3.935483
1.018643
3.471789
1.835218
2.387738
0.377139
2.455526
0.530199
1.440125
0.195268
0.924627
1.765994
3.083103
0.159620
1.475403
1.923206
5.301142
2.700958
4.864438
3.648543
3.490069
5.918304
1.975096
9.941771
1.249406
3.927584
3.615993
0.920878
6.083120
7.731855
3.389364
0.249219
6.199821
7.739292
2.691398
-1.700689
7.038770
7.362660
0.801163
-3.412525
8.165267
7.066456
1.133632
-3.420622
7.308304
6.597980
3.142881
-2.350029
4.759997
-1.726032
5.194685
2.078990
6.318949
1.499773
6.656377
-1.488672
6.562580
-4.607471
7.656630
-8.945413
5.873983
-11.632703
6.507620
-13.187279
5.759859
-10.343527
6.402214
-9.750155
6.468376
-7.394244
5.815968
-5.509342
6.027033
-3.050044
5.750861
-2.174972
-2.914654
-2.298576
3.359745
-1.703078
-2.459286
-2.607276
9.325276
-3.286841
6.055759
-4.229763
-0.925130
-3.583931
-1.982219
-1.767557
-2.569132
-0.433110
-4.154366
1.008408
-3.974814
2.346872
-7.033046
3.408590
-8.188718
4.300043
-2.311370
4.979201
1.494888
2.151315
0.014144
-0.493113
-6.562898
-0.506085
-2.897990
-2.090638
-10.310863
11.632619
0.153207
0.278161
1.416818
4.548703
-2.957685
14.857431
-1.590200
13.702705
-1.040021
9.214786
-1.228039
5.127276
-1.973515
4.167578
-3.736598
3.498753
-4.028136
3.048066
5.298356
7.346503
6.469276
5.688341
-2.900603
7.161341
7.035282
8.282416
-2.105381
-2.622874
4.649724
6.725889
3.770124
1.060993
6.553366
9.369412
4.640013
4.467048
3.311132
1.750044
6.408803
7.721140
3.825142
0.517532
2.424577
1.703098
7.894695
6.945770
3.017583
1.162538
0.899563
0.960084
7.183142
7.137232
0.064668
3.367458
5.368179
7.036125
-3.573015
3.398944
-7.475106
5.076192
-5.484756
2.382249
-2.244267
3.954579
-1.330993
5.737351
0.536092
4.691599
2.240284
2.739132
4.041458
4.598264
3.974759
0.456436
7.526960
2.827652
10.380705
3.312987
6.316764
3.087471
1.857407
3.811449
6.744903
7.402467
4.322212
7.244488
3.165471
5.952149
3.718514
6.994367
6.116987
6.314215
5.427187
5.102408
3.477621
3.921194
2.803245
5.161345
3.375758
3.102983
2.067609
5.787269
4.177597
5.980250
5.291641
10.094532
8.482083
5.700782
3.624270
1.918656
2.037518
-1.843404
-0.613592
0.607153
1.273192
-1.819536
3.915049
-1.519882
0.409217
-0.025691
3.946373
-1.988840
-0.210517
0.088768
-0.973595
1.939496
2.288470
1.079924
-0.557875
1.091177
-2.906712
-5.872541
-2.297445
0.974703
-3.087112
-1.079184
-2.381916
-5.671698
-0.867287
-0.656434
-0.522873
3.289515
-0.601810
-3.448661
-3.662651
4.555788
-2.463169
-0.146459
-4.457081
4.766137
1.522871
0.787676
-5.233638
3.046118
-5.045458
2.485105
-4.446515
5.146771
-6.134696
6.790456
6.064471
9.082824
-4.783547
6.539482
5.571589
9.038193
-2.136946
-0.943779
1.011482
5.905933
5.732576
9.658379
1.724985
6.450863
10.244980
8.683724
2.018683
7.574723
11.724497
9.100117
0.955119
10.126427
12.559208
10.277163
0.157147
12.074907
14.330003
9.315856
-0.220235
12.455233
10.133534
10.804635
0.240410
10.294168
4.395019
9.350822
4.078740
10.159472
4.075409
8.945603
4.797485
8.574228
3.063349
7.814534
2.126191
7.730262
1.665997
5.229023
-0.339402
5.287078
2.446313
4.611926
4.936608
2.301932
-2.218155
-3.056127
-3.483146
8.231582
3.765016
11.148623
3.296276
9.781280
2.644441
6.372594
1.191893
4.438056
-0.960504
-5.214222
-5.014399
-6.953266
-6.036865
3.917451
3.092156
7.690188
2.670639
8.678578
4.105840
12.786388
6.367917
17.311115
9.126302
1.693846
4.028886
14.099694
9.063138
3.758399
3.151351
10.820830
8.263405
8.398685
3.802458
8.354179
2.942582
5.859651
3.101025
2.841461
4.385500
0.439923
3.699041
-2.123854
1.858781
2.589970
4.346684
-5.032839
0.143791
2.416739
4.264376
-4.077883
5.816075
-0.920195
5.080725
1.286002
4.300394
2.255147
2.915537
3.390333
1.059569
1.688792
2.311826
1.125547
6.608524
6.276833
2.962166
3.069405
5.223483
7.476769
2.125927
2.295709
7.205585
7.329651
-0.647680
-1.820476
4.976876
6.779088
-0.311960
-2.187340
1.866196
-3.114905
3.454518
-2.358145
4.546122
4.628613
4.579944
-2.585692
4.763838
4.644389
5.234546
-1.468724
4.484156
4.997616
5.792078
-1.807396
6.288486
-2.397560
6.752575
-5.781366
7.067847
-9.271662
5.966486
-11.023063
5.384117
-9.872334
4.469789
-7.659372
4.275757
-6.501595
3.845682
-4.082303
3.480150
-2.741261
2.451312
-2.666591
-2.817627
-1.856600
1.450354
-1.597852
-0.877735
-1.264078
0.741200
-1.860825
3.356409
-0.764539
-2.441990
-2.119676
-2.165573
-3.769922
-1.641366
-3.049908