# vtk DataFile Version 1.0
vtk file 112m_1:A:A_model1
ASCII
DATASET POLYDATA

POINTS 10304 double
2.179000 -4.617000 -21.884000
3.171000 -4.721000 -21.868000
1.437000 -4.569000 -20.966000
4.393000 -4.848000 -20.929000
1.278000 -4.535000 -20.033000
5.008000 -4.609000 -20.004000
1.469000 -4.659000 -19.114000
5.943000 -4.802000 -18.802000
1.324000 -4.573000 -18.057000
6.301000 -4.680000 -17.872000
-9.642000 -4.403000 -16.857000
-7.889000 -4.611000 -16.749000
-0.417000 -4.445000 -16.844000
6.889000 -4.698000 -16.863000
-9.536000 -4.647000 -15.933000
-7.714000 -4.734000 -15.957000
-0.716000 -4.540000 -16.100000
9.460000 -4.879000 -15.992000
-10.030000 -4.435000 -14.903000
-6.772000 -4.778000 -15.034000
-1.024000 -4.564000 -15.170000
9.946000 -4.707000 -14.978000
-10.907000 -4.478000 -13.755000
9.936000 -4.635000 -13.933000
-11.211000 -4.735000 -12.792000
9.914000 -4.532000 -12.818000
-11.029000 -4.535000 -12.033000
9.455000 -4.552000 -11.718000
-10.704000 -4.724000 -10.927000
9.038000 -4.735000 -10.833000
-10.437000 -4.772000 -9.978000
8.995000 -4.635000 -9.933000
-9.766000 -4.755000 -8.943000
9.247000 -4.524000 -8.933000
-8.977000 -4.794000 -7.819000
9.062000 -4.678000 -7.987000
-8.746000 -4.635000 -6.933000
6.485000 -4.696000 -6.743000
-8.956000 -4.635000 -5.933000
6.043000 -4.702000 -5.862000
-9.253000 -4.469000 -5.069000
6.120000 -4.708000 -4.888000
-9.725000 -4.445000 -3.970000
9.118000 -4.600000 -3.771000
-12.995000 -4.570000 -3.005000
1.091000 -4.511000 -2.971000
4.364000 -4.684000 -2.970000
9.227000 -4.735000 -2.833000
-13.491000 -4.412000 -2.047000
-1.054000 -4.469000 -1.992000
5.065000 -4.554000 -1.920000
9.267000 -4.535000 -2.033000
-12.874000 -4.618000 -1.028000
-1.632000 -4.635000 -0.904000
6.042000 -4.775000 -0.919000
9.205000 -4.671000 -1.013000
-12.745000 -4.695000 -0.061000
-1.897000 -4.635000 0.067000
7.164000 -4.704000 0.037000
9.914000 -4.700000 0.112000
-14.605000 -4.527000 1.172000
-2.132000 -4.469000 0.989000
7.328000 -4.696000 0.995000
11.299000 -4.802000 1.123000
-15.402000 -4.467000 2.115000
-3.041000 -4.624000 2.006000
6.925000 -4.769000 2.002000
11.577000 -4.646000 1.944000
-15.473000 -4.505000 2.900000
-4.572000 -4.632000 3.148000
4.000000 -4.673000 2.975000
12.149000 -4.699000 3.092000
-15.481000 -4.431000 3.961000
-4.620000 -4.635000 4.067000
3.926000 -4.777000 3.995000
12.687000 -4.437000 4.162000
-14.854000 -4.832000 4.927000
-4.589000 -4.635000 5.067000
3.766000 -4.661000 4.913000
12.240000 -4.393000 5.178000
-13.064000 -4.877000 6.075000
-4.635000 -4.627000 6.138000
0.391000 -4.665000 6.229000
1.025000 -4.885000 6.061000
3.194000 -4.465000 5.959000
10.056000 -4.620000 6.138000
-11.763000 -4.836000 7.086000
-4.472000 -4.801000 7.038000
-0.630000 -4.565000 7.102000
9.526000 -4.821000 7.206000
-11.688000 -4.685000 8.067000
9.445000 -4.737000 8.233000
-12.031000 -4.716000 9.010000
9.537000 -4.796000 9.106000
-12.461000 -4.413000 9.972000
9.982000 -4.763000 10.010000
14.020000 -4.583000 9.953000
15.262000 -4.652000 10.182000
-12.089000 -4.746000 11.089000
15.994000 -4.430000 11.153000
-11.808000 -4.735000 12.167000
15.240000 -4.625000 12.200000
-11.576000 -4.635000 13.015000
14.337000 -4.695000 13.185000
-10.845000 -4.850000 14.055000
14.017000 -4.535000 14.055000
-8.621000 -4.802000 14.992000
13.000000 -4.543000 15.064000
-4.628000 -4.673000 16.021000
6.926000 -4.707000 16.047000
10.375000 -4.774000 16.029000
11.258000 -4.537000 16.046000
-2.906000 -4.800000 16.927000
6.931000 -4.635000 17.067000
-2.228000 -4.793000 18.115000
7.182000 -4.635000 18.067000
-2.092000 -4.735000 19.167000
7.487000 -4.635000 18.957000
-1.787000 -4.653000 20.037000
7.885000 -4.735000 20.035000
-0.937000 -4.635000 21.114000
7.788000 -4.564000 20.846000
-0.089000 -4.760000 22.077000
7.068000 -4.653000 21.980000
0.227000 -4.684000 22.847000
6.766000 -4.699000 22.824000
-2.622000 -4.466000 25.059000
-0.067000 -4.652000 25.313000
-2.901000 -4.555000 25.900000
0.371000 -4.684000 26.233000
-2.774000 -4.569000 26.855000
0.225000 -4.540000 27.069000
3.363000 19.243000 -8.889000
4.348000 19.322000 -9.027000
-5.677000 19.319000 -7.705000
-4.070000 19.181000 -7.934000
-0.099000 19.384000 -7.955000
5.051000 19.233000 -8.036000
-5.794000 19.330000 -6.767000
-3.910000 19.212000 -7.140000
-1.078000 19.556000 -6.978000
5.229000 19.238000 -7.119000
-5.740000 19.325000 -5.854000
-4.071000 19.325000 -6.176000
-1.704000 19.511000 -5.962000
5.856000 19.121000 -5.940000
-3.845000 19.292000 -4.806000
5.776000 19.204000 -5.008000
-3.592000 19.192000 -3.772000
2.281000 19.370000 -3.819000
-3.275000 19.411000 -2.856000
1.957000 19.365000 -2.933000
-3.231000 19.570000 -2.056000
1.842000 19.469000 -2.037000
-3.553000 19.365000 -1.056000
2.023000 19.313000 -1.051000
-3.836000 19.257000 0.026000
2.401000 19.375000 -0.033000
-3.521000 19.358000 0.928000
2.270000 19.527000 0.868000
-1.608000 19.179000 2.178000
1.030000 19.314000 2.041000
-0.652000 19.276000 3.077000
-0.073000 19.416000 2.922000
-15.161000 -4.745000 1.830000
-15.328000 -4.511000 4.631000
-14.159000 -4.639000 0.941000
-14.467000 -4.531000 5.396000
-13.210000 -4.671000 -2.555000
-13.339000 -4.500000 -1.605000
-13.314000 -4.729000 0.640000
-13.583000 -4.628000 5.911000
-12.240000 -4.601000 -3.346000
-12.459000 -4.666000 6.370000
-12.271000 -4.725000 9.527000
-12.345000 -4.513000 10.546000
-11.236000 -4.532000 -3.411000
-11.179000 -4.462000 13.608000
-10.461000 -4.821000 -14.444000
-10.267000 -4.572000 -9.658000
-10.459000 -4.704000 -3.521000
-10.187000 -4.517000 14.301000
-9.270000 -4.504000 -17.474000
-9.285000 -4.461000 -8.533000
-9.481000 -4.830000 -4.572000
-9.418000 -4.635000 14.610000
-8.293000 -4.596000 -17.480000
-8.252000 -4.469000 15.226000
-7.397000 -4.784000 -15.536000
-7.336000 -4.635000 15.434000
-6.173000 -4.652000 -14.774000
-6.336000 -4.635000 15.737000
-5.336000 -4.771000 -14.651000
-5.321000 -4.707000 15.804000
-4.336000 -4.778000 -14.767000
-4.199000 -4.799000 2.617000
-4.149000 -4.608000 7.275000
-4.316000 -4.473000 16.247000
-3.336000 -4.702000 -14.733000
-3.427000 -4.710000 2.204000
-3.214000 -4.665000 7.710000
-3.572000 -4.551000 16.598000
-2.336000 -4.683000 -14.550000
-2.446000 -4.707000 1.582000
-2.236000 -4.535000 7.725000
-2.490000 -4.663000 17.653000
-2.167000 -4.623000 24.810000
-2.269000 -4.424000 27.488000
-1.321000 -4.867000 -14.651000
-1.359000 -4.802000 -1.652000
-1.321000 -4.707000 7.483000
-1.351000 -4.556000 20.595000
-1.265000 -4.528000 24.598000
-1.336000 -4.567000 27.635000
-0.090000 -4.547000 -17.058000
-0.408000 -4.735000 -2.284000
-0.296000 -4.827000 6.650000
-0.393000 -4.560000 21.628000
-0.332000 -4.554000 24.897000
-0.376000 -4.548000 27.410000
0.735000 -4.789000 -17.389000
0.630000 -4.745000 -2.577000
0.614000 -4.835000 6.040000
0.717000 -4.624000 23.231000
1.793000 -4.807000 -21.357000
1.737000 -4.454000 -3.381000
1.683000 -4.572000 6.321000
1.664000 -4.524000 23.490000
2.746000 -4.411000 -22.119000
2.831000 -4.577000 -3.338000
2.580000 -4.802000 6.297000
2.564000 -4.735000 23.445000
3.624000 -4.812000 -21.600000
3.651000 -4.617000 -3.447000
3.605000 -4.853000 5.486000
3.593000 -4.669000 23.289000
4.703000 -4.599000 -20.722000
4.720000 -4.609000 -2.599000
4.833000 -4.685000 2.390000
4.664000 -4.695000 23.326000
5.569000 -4.564000 -19.313000
5.623000 -4.756000 -1.249000
5.831000 -4.678000 2.434000
5.664000 -4.713000 23.434000
6.677000 -4.438000 -17.211000
6.686000 -4.828000 -7.074000
6.852000 -4.686000 -4.490000
6.543000 -4.655000 -0.383000
6.638000 -4.769000 2.413000
6.490000 -4.848000 23.189000
7.644000 -4.564000 -16.633000
7.511000 -4.785000 -7.431000
7.831000 -4.638000 -4.395000
7.701000 -4.554000 15.273000
7.665000 -4.469000 19.357000
7.539000 -4.564000 21.322000
8.733000 -4.630000 -16.453000
8.450000 -4.655000 -7.552000
8.600000 -4.627000 -4.410000
8.664000 -4.641000 15.251000
9.744000 -4.627000 -15.778000
9.699000 -4.719000 -12.106000
9.656000 -4.440000 -0.209000
9.738000 -4.707000 6.710000
9.664000 -4.711000 9.654000
9.629000 -4.454000 15.813000
10.605000 -4.564000 0.408000
10.592000 -4.682000 5.726000
10.779000 -4.583000 10.432000
10.879000 -4.803000 16.146000
11.723000 -4.549000 2.293000
11.471000 -4.619000 5.533000
11.664000 -4.692000 10.705000
11.772000 -4.640000 15.923000
12.631000 -4.387000 3.782000
12.533000 -4.593000 4.465000
12.735000 -4.693000 10.722000
12.557000 -4.641000 15.442000
13.675000 -4.678000 10.284000
13.533000 -4.707000 14.599000
14.735000 -4.558000 9.854000
14.726000 -4.645000 12.569000
15.717000 -4.534000 10.455000
15.581000 -4.675000 11.784000
-5.442000 19.165000 -8.191000
-5.129000 19.360000 -5.362000
-4.563000 19.225000 -8.209000
-4.323000 19.336000 -5.710000
-3.202000 19.474000 -5.428000
-3.352000 19.458000 -3.267000
-3.355000 19.311000 -1.613000
-3.182000 19.525000 1.278000
-2.364000 19.481000 -5.632000
-2.357000 19.365000 1.679000
-1.431000 19.183000 -6.628000
-1.156000 19.537000 2.353000
-0.428000 19.131000 -7.666000
-0.247000 19.286000 3.182000
0.550000 19.365000 -8.112000
0.638000 19.347000 2.364000
1.510000 19.413000 -8.088000
1.647000 19.493000 1.549000
2.530000 19.236000 -8.378000
2.817000 19.273000 -4.194000
3.710000 19.223000 -9.151000
3.735000 19.383000 -4.414000
4.598000 19.408000 -8.684000
4.831000 19.279000 -4.403000
5.521000 19.348000 -6.278000
5.570000 19.169000 -4.617000
-13.081000 -4.726000 -1.904000
-13.278000 -1.847000 -2.193000
-12.287000 -16.032000 -1.767000
-12.511000 -12.789000 -2.019000
-12.338000 -5.162000 -1.833000
-12.320000 -1.244000 -1.995000
-11.152000 -18.236000 -1.826000
-11.455000 -0.871000 -1.983000
-10.275000 -18.845000 -1.844000
-10.397000 0.105000 -1.842000
-10.223000 10.750000 -1.902000
-10.281000 11.773000 -2.120000
-9.322000 -21.247000 -1.871000
-9.507000 0.276000 -1.953000
-9.318000 9.750000 -1.949000
-9.415000 12.714000 -2.152000
-8.341000 -22.071000 -1.833000
-8.594000 1.035000 -1.902000
-8.171000 5.159000 -1.837000
-8.481000 13.990000 -2.096000
-7.352000 -22.070000 -2.033000
-7.301000 2.775000 -2.100000
-7.519000 4.704000 -2.041000
[...]
POINT_DATA 10304
SCALARS Potential double
LOOKUP_TABLE default
-1.149063
-0.848675
-0.613846
0.763200
0.182457
0.998634
0.367751
2.180297
-0.250130
2.642877
15.966960
16.792385
-1.675438
3.247270
15.882690
14.806881
-2.279074
8.636538
14.330282
15.197244
-1.479090
7.862874
10.803108
5.337368
7.790875
3.008765
6.781943
1.070990
5.310153
0.377869
5.083746
0.430652
4.534451
1.373083
4.705271
1.950863
5.228971
-0.320046
5.289931
-0.593026
5.258056
0.345515
3.906833
4.353730
-5.936068
6.640131
5.220412
4.484859
-7.338841
6.260494
6.104142
4.372249
-6.062513
6.936744
4.542048
3.700894
-5.123289
6.253401
4.592296
3.455361
0.047946
7.173437
4.898101
5.870939
3.498543
7.517592
5.855467
4.524322
3.639010
7.016874
5.249698
2.916275
4.051345
7.869225
4.159919
5.218425
2.853045
8.323894
2.821350
8.123739
-0.502816
7.878011
7.610196
7.343406
3.560737
12.757103
-2.229366
7.154098
6.153028
17.596262
-4.719865
15.474365
-8.355433
15.709032
-8.870534
14.611585
12.402131
10.471530
-6.080233
10.472892
-5.104760
9.060416
-5.745278
5.026881
-4.695467
2.689301
-3.382511
-0.091288
-3.859283
3.993594
-0.307469
0.195737
-2.229905
4.050991
-3.499826
2.923901
-5.195959
-0.382263
-5.445057
-2.318983
-1.596820
-2.716667
1.963807
-1.072701
2.763807
0.679411
9.455793
6.697390
8.399563
6.494905
9.361924
6.832347
-2.593421
1.214705
3.369126
1.498041
-3.649772
2.529990
2.876472
0.530389
-2.346607
4.078605
1.640001
-0.419154
-1.699378
14.157205
-2.618212
13.293773
-4.557455
9.799073
-3.661144
11.139054
-1.362550
11.693547
-1.077724
9.111424
-1.869599
6.359728
-2.143893
4.050775
-2.051481
1.185865
-2.014002
-1.083415
2.083218
3.939249
-1.547257
2.009212
-6.941228
-7.618194
-3.634048
0.263760
-3.148682
-1.183911
-9.160359
-8.343416
0.284090
-5.754797
11.771425
4.920691
1.981451
-4.295738
15.527371
4.034438
4.393821
-3.645511
16.424264
-3.635993
15.058790
-4.737964
14.563074
-6.854129
9.245087
-5.351857
4.198822
7.201763
8.282435
-3.186397
0.581921
8.075192
8.281511
-2.156376
-0.701260
7.610238
7.376921
-3.205925
11.561236
11.563461
-0.989520
6.043006
6.976099
-3.831921
12.625252
14.146286
-1.972582
6.640311
7.656376
0.703328
8.173114
8.378756
-1.946359
7.215274
9.018518
2.091680
-0.484076
6.005929
6.473936
-0.024784
-1.610867
6.324610
4.500123
-0.257081
-0.242558
4.659709
2.240257
-0.430060
0.891388
5.062754
6.001118
0.659287
1.690590
6.018012
6.022220
1.485571
3.438393
-0.009879
1.382302
4.950811
5.474348
1.340744
5.437864
0.665803
2.510319
4.234357
-1.542795
-2.634193
6.871191
1.578102
3.853234
3.142324
8.485088
1.118850
3.153880
15.207360
12.572911
1.626065
5.202727
12.019534
14.696384
-0.923152
3.961813
10.982091
14.348317
-0.266895
3.643099
5.192337
14.121569
0.073849
13.315318
-0.347582
11.052134
6.902090
10.300157
10.123500
3.333442
-0.028522
2.135379
-0.572990
-2.677585
-4.349109
-1.093233
-1.772230
-2.680705
-1.808724
-1.049237
-1.236825
-2.647884
-2.022498
-3.867762
0.442108
-3.632797
2.452641
-4.354822
9.261308
-0.783090
8.237907
2.170524
8.070557
10.466684
10.769661
-7.230683
-5.306647
-4.977815
-5.445531
-4.350332
-1.638806
-3.799897
-0.033604
-1.824644
1.173885
4.155044
7.031495
-2.089691
2.311296
1.490704
-0.417606
-1.938540
3.077684
1.178649
-4.943954
-1.457664
4.770089
1.485870
0.828285
-0.186129
0.011306
3.269376
-0.982314
4.343761
-2.443060
4.506719
6.144367
4.793022
-2.029946
6.365535
3.344166
4.021044
7.619029
5.688471
1.759799
3.020259
3.795317
6.327782
7.724722
5.660238
2.671449
2.575754
3.577651
5.628853
3.237265
2.981183
3.889355
7.066322
5.015139
6.490401
4.657986
6.328076
11.339653
6.956224
5.932167
6.972612
10.666118
7.667154
5.319881
5.266160
9.903036
6.665675
5.433345
3.943134
14.146384
5.260340
6.455956
6.538984
11.697406
5.559109
8.051103
5.468026
7.908141
5.645446
0.938087
0.963787
4.634805
4.112750
1.394686
0.664822
2.842479
4.983511
1.590133
1.201848
4.634716
5.385562
0.020962
1.551629
4.381222
4.779756
-0.074674
0.407809
4.163033
4.061946
1.687354
-2.173434
3.658813
-1.674004
-0.754923
0.401916
5.123916
0.146727
5.486517
0.934357
5.413558
6.001573
4.926560
5.621343
4.340254
5.479767
3.790761
4.776028
-4.022862
-5.297552
3.130258
2.932570
-2.951035
-2.896150
3.268994
2.368874
-2.452663
-1.386862
0.398998
0.872348
2.448522
1.405924
-1.041420
-1.653059
-1.093201
-1.648060
0.062399
-0.921407
1.307866
0.137234
2.748290
16.329056
13.995649
0.977474
4.078010
19.353590
13.687104
0.426786
5.100161
16.757906
13.861429
7.538679
4.927094
0.582926
8.274893
14.411672
7.049709
11.889632
5.568831
9.184909
4.867764
6.817663
2.998124
5.182125
0.534008
4.349355
0.319663
3.002787
2.072576
3.439926
3.169184
5.048023
2.806530
6.003138
2.279317
5.905461
2.867827
5.773310
4.584509
4.991302
3.584466
-7.316223
5.517298
5.189767
3.911106
-8.070306
7.205687
4.946746
3.508124
-7.572495
6.302939
4.928056
2.140272
-6.709115
6.518451
5.477326
3.251554
0.082816
6.796410
6.262870
5.488059
5.826239
6.562018
6.778481
4.552700
4.896705
5.103516
5.875818
2.957709
5.111025
5.653027
5.337693
4.203693
4.656997
6.307195
5.003869
6.472401
0.734784
8.307892
4.907879
9.176235
-0.913668
7.065278
4.429074
13.658815
-5.182491
14.213969
14.832897
12.358503
-9.278936
12.523591
14.452717
8.640589
-11.735613
8.201854
-9.958516
9.144904
-8.324003
9.877672
-9.152246
11.923567
-4.330638
8.189733
-3.108281
2.715884
-3.895272
5.365781
2.963996
3.260723
-2.470333
4.352863
-2.745952
2.769212
-4.603503
-0.420802
-4.540301
-2.550352
-2.063576
-3.623290
-0.227355
-2.285285
1.965898
-5.155555
4.889805
-2.738053
8.171005
2.308337
11.028582
4.535407
10.395647
4.705717
-4.102477
-4.141619
-3.534288
-1.205892
-2.063485
2.534261
-3.999509
5.130410
-4.086770
8.207495
-1.614600
9.684373
-0.631495
11.901411
-0.372497
8.978470
-0.449024
6.216358
-0.343897
3.904494
-0.277613
1.567775
4.833544
3.777381
-2.740817
1.835747
-6.191778
-2.566913
-3.658358
-9.859420
-1.016745
-8.484600
18.041764
19.530853
10.587459
5.654740
2.914846
-5.553668
15.932704
3.461620
6.974603
-3.604667
18.008643
-2.608222
16.145690
-3.132812
12.225262
-5.214941
9.024735
-5.303025
5.676029
6.669755
6.710260
-2.922912
3.864197
6.959218
7.150126
-3.497191
2.218379
7.574103
7.957000
-3.904534
7.722381
9.094056
0.977840
7.468987
6.009779
-4.523533
4.316664
8.910944
0.571371
6.198141
5.292919
7.103333
0.362884
5.888465
5.671464
6.107175
-1.826723
4.433179
4.265056
-0.017467
-1.870001
4.966009
6.827739
6.298595
4.488327
-3.941928
-1.671437
3.497365
7.390866
-3.177290
-0.463231
4.740447
5.990913
-1.743459
2.216131
-1.167458
4.326974
-3.149070
6.407200
4.873158
-2.047854
-3.281343
7.322501
3.858789
7.888778
2.167270
1.267493
2.173563
3.233113
3.804454
1.971364
3.336283
2.998485
3.162096
4.848558
14.559181
11.569374
2.759230
4.799290
12.392810
13.392522
3.426366
3.433620
5.443662
11.859972
2.457456
9.353107
4.953601
9.720128
8.042284
9.255598
10.185186
-0.582983
-0.426913
-3.763505
-0.211709
-2.068483
0.095570
-4.370597
0.180902
-4.811914
2.165820
-3.424324
12.171501
7.016374
4.674803
4.752365
8.288299
-7.000302
-4.317852
-6.150097
-6.160683
-6.560957
-9.275727
-4.333308
-1.503304
-4.567612
-0.469674
-2.990933
0.007314
-0.108079
0.899547
-1.649654
0.400668
1.139665
0.350243
-1.954642
0.692466
-1.097157
2.658059
1.219072
-0.925150
-2.835641
0.489663
2.665606
-0.348178
4.381026
-1.455247
5.054362
-2.098114
6.105080
0.921261
12.717954
2.446213
4.352897
7.997663
6.002830
1.955531
3.818124
3.751886
6.005526
2.658780
4.429280
3.222692
5.958887
3.645980
3.603831
4.071676
6.761385
4.979971
5.044929
3.939752
6.157019
8.409151
8.024302
6.729630
5.843257
8.456883
10.910415
6.303099
4.855842
9.219661
8.645738
5.822610
3.489644
13.429006
8.333385
7.792611
5.691083
14.952104
5.563560
7.702570
5.346394
5.340307
5.656980
1.185577
3.001948
1.441110
1.483375
1.444231
5.171445
3.628300
5.464233
3.822392
4.434683
-1.514529
2.023694
3.817346
3.804296
1.563923
-2.196978
3.059080
0.071355
0.796337
2.526639
4.172651
2.629972
3.767166
3.188508
3.373278
3.163233
1.379438
4.036697
0.244449
4.242464
2.948967
3.514386
-1.796628
-8.576978
2.444489
2.791578
-0.844442
-4.168872
-0.053879
0.950605
2.385152
2.865900
-0.094196
-1.761391
-0.200752
1.666236
0.516457
-1.079334
-0.062330
7.984526
5.392552
-1.345608
0.692966
8.471255
5.051677
-1.021526
2.260171
14.489077
5.315829
0.165836
3.608010
15.768636
3.871854
1.840572
4.733111
15.264714
3.569077
3.754613
4.274705
14.300396
4.504708
3.868015
7.652631
13.983687
6.537527
9.709971
5.664650
6.536628
5.009244
4.872478
3.727669
3.809312
1.106171
2.450346
1.962480
1.300747
3.644655
2.555464
3.943079
4.791115
3.230783
6.206599
2.960655
11.837820
2.112358
5.447833
2.576223
3.914012
4.398696
-7.148137
5.972463
5.005983
4.339138
-7.191279
7.812639
4.165996
5.065540
-7.328258
8.053371
3.187769
5.594702
-3.513016
7.026302
4.360806
5.486095
2.814590
7.744998
6.892047
5.711638
6.623003
7.642919
7.422677
5.653718
7.070444
5.660508
5.488054
4.661252
8.782306
5.556831
5.933493
4.549151
4.967316
5.671212
5.084516
6.588109
1.078310
6.607865
4.483662
6.267309
-1.009451
4.615982
4.680480
9.178058
-6.570588
7.890702
-11.304023
7.260314
-13.398073
7.381247
-13.187625
7.032793
-12.693227
9.471010
-11.227553
15.566209
-4.553668
10.767829
-3.361546
4.383876
-2.933177
3.659216
-2.074020
-2.527505
-3.323555
4.321764
-3.076781
2.377984
-5.515594
0.561247
-5.828786
-1.925872
-2.808433
-3.184348
-0.295289
-4.972910
2.216935
-6.851327
4.475621
-3.770083
7.310747
0.111476
13.220968
1.897972
11.002670
3.422828
6.707662
5.193452
-3.078079
-2.519419
-1.106009
1.889834
-0.673478
5.090460
-0.065637
9.533777
1.190285
6.958267
0.374078
8.428243
0.311287
7.155403
0.802197
5.530974
0.896003
4.031396
0.750555
2.406546
8.005445
7.888798
7.818525
3.613269
-5.508655
2.177111
-5.906117
-4.221058
-3.311091
-14.636255
2.048183
-11.303421
16.879519
12.372707
8.177442
4.656047
10.906853
-6.737136
15.400657
1.482903
7.626059
-2.127772
12.730006
-1.608729
10.907116
-1.795376
5.642954
-2.702857
5.237576
-3.316789
4.087893
-3.572297
4.868773
6.473215
6.329705
-4.143846
3.954471
6.820463
6.626222
-4.517540
1.145922
8.688712
3.466445
7.786395
7.734970
7.178854
5.870645
-3.077356
-0.870909
6.653044
3.434722
4.945861
4.583068
6.540901
2.655095
5.804999
4.934446
6.168240
-1.095946
5.065986
6.957114
5.967941
5.060435
-2.078841
-1.004913
5.300838
6.294072
4.717054
4.638478
-6.500591
-0.406193
4.934636
4.958374
-3.863212
1.087655
3.906333
3.350985
-3.141974
2.951881
-3.293384
5.240043
-3.047534
6.926137
5.491763
7.540979
3.013404
7.909433
2.540264
1.552016
3.129060
3.251967
2.685652
2.440520
5.659717
3.216018
5.644909
6.243177
5.991028
4.672989
4.990249
7.936856
4.307385
7.997157
5.151230
8.082115
8.108728
8.217567
14.053093
7.406087
8.418217
0.174784
0.669563
0.788186
1.161939
-0.853994
1.053528
-3.728500
1.341635
-3.601203
3.048617
0.003896
8.460776
6.122593
6.324387
-4.351349
-4.730534
-6.244513
-5.821645
-5.485664
-8.681082
-3.301133
-3.858282
-4.755443
-2.030998
-3.019648
-1.900045
-1.225451
-3.473699
1.806697
-0.650257
0.420955
1.196407
-3.232954
-0.875675
2.869087
0.403745
-2.978300
-1.087581
3.656845
-0.568816
-0.490307
-1.841572
4.260511
-3.023937
5.124238
-3.066552
6.087078
0.283746
7.172499
1.457711
4.624130
5.876706
6.268669
2.326557
6.194333
4.460158
6.682950
3.058463
4.874142
3.424596
6.647230
4.202613
6.401906
2.481675
5.925500
5.827167
8.568451
4.932405
6.005953
4.979992
11.841860
5.940846
4.666022
4.208770
10.212811
4.713237
6.928302
5.775694
4.163644
5.848937
10.598267
7.499924
6.558554
7.701453
4.962746
7.438131
4.293446
6.321841
4.691779
0.482031
5.183830
1.271802
4.619280
3.650294
5.275165
3.530893
2.461176
0.268986
2.267702
2.670548
-2.078576
0.908158
-1.174625
-1.061535
5.382396
3.341529
6.785287
3.114403
6.231394
2.199728
2.803411
-0.018800
0.005426
-0.878460
-8.556855
0.141200
-8.133368
-0.546363
-5.403726
-0.866851
-2.658957
-1.394025
5.724051
4.138616
1.887043
2.650379
8.885179
3.713905
0.609692
2.777035
10.136797
3.916802
0.943505
4.916275
13.559628
5.166103
0.947767
5.845805
14.993820
3.490535
2.122921
4.850195
12.092312
3.059547
6.344574
3.283633
12.006075
4.653168
6.480937
6.750174
10.630150
5.472895
7.399902
5.647086
4.986422
4.777655
3.298440
2.738502
2.294064
1.098689
-2.478257
0.788791
1.759599
0.306072
-1.285984
1.322730
2.279383
4.452933
2.871032
4.342873
5.072416
3.287864
6.407541
2.717009
9.057754
1.870798
3.469119
3.268236
-1.547461
5.531142
6.891240
3.540444
-3.991423
6.011214
7.021309
3.857091
-5.884367
5.430688
6.190363
4.400167
-5.277897
7.904509
5.940651
4.285082
1.177516
7.115375
6.181203
4.735165
5.750911
-1.289970
-2.680027
5.488000
9.982249
5.333341
11.379464
5.157334
3.340441
4.763954
4.973864
4.458208
0.484718
4.491562
4.789182
6.716962
-2.319592
7.292515
-7.985139
7.005585
-12.563055
6.551471
-13.754369
7.020376
-12.928990
6.778645
-11.714014
7.882316
-9.636998
9.482379
-5.187951
8.444791
-3.324811
7.160482
-1.958633
-2.806354
-2.867017
3.346989
4.924282
4.463561
-1.151665
-2.290940
-3.819214
1.584786
-4.634611
1.924134
-6.940892
0.132003
-5.117240
-1.926863
-1.540925
-2.927085
0.799907
-5.800124
1.974529
-7.845388
3.704300
-5.269603
5.293380
-2.657488
7.372868
-0.530601
7.249484
2.271890
1.502369
3.594609
2.116845
5.177023
5.586123
9.190429
5.092254
5.300869
-1.370155
2.517438
-5.155520
-4.484512
-3.314114
-3.165086
-1.288502
-10.056429
5.280580
-13.158966
-13.282379
-13.807491
15.205251
2.109805
8.837974
-3.382704
15.286444
2.154697
6.134255
-1.301005
11.910542
-0.948712
6.958372
-1.314474
4.823113
-1.784949
4.602684
-3.273282
4.484097
4.234746
3.853908
-3.176699
5.481423
6.345778
5.558766
-3.536403
6.260832
5.850965
7.075469
-4.578326
-3.576123
6.531222
6.102406
1.209949
-0.121765
4.651958
7.462131
5.436389
4.990785
-0.457869
-0.386864
5.652844
7.163718
5.487483
4.813962
4.750443
2.948188
-2.163204
-0.952214
7.288293
6.493631
4.981398
5.629456
3.804093
0.861256
6.865339
6.449249
4.494367
4.965745
0.630130
1.471179
6.620500
5.911570
-7.064949
2.356321
-4.180687
3.218873
-3.244470
2.896915
-2.781029
4.896952
-1.327036
5.736463
2.503363
5.896463
1.656904
6.274537
4.222460
2.551029
1.593562
4.365029
6.666096
2.403607
8.145930
3.214652
4.169218
5.245434
5.302992
3.125812
4.322069
7.541539
4.216407
7.156845
5.057650
6.894904
10.810272
6.585719
7.683411
1.381689
2.918365
2.117952
3.958838
3.245713
5.450824
2.809526
2.296568
1.887611
1.624585
1.283946
1.154468
1.237893
0.917195
-0.931442
0.054126
-1.621351
-3.163410
-5.998513
-7.832838
-0.529914
-4.199548
-2.992004
-2.398874
-2.039414
-3.333336
-1.868041
0.420968
2.793291
0.869916
-3.465949
-3.463700
3.690692
-1.007815
-0.542523
-3.264502
4.617993
0.448580
0.322443
-3.800992
3.342754
-4.316087
3.161394
-4.461989
5.865865
-0.916887
6.312776
0.604398
5.641591
6.473915
7.168528
1.858894
4.993042
5.818530
7.383366
2.710581
5.514207
3.135992
5.957350
3.154041
6.904154
2.602650
5.847079
3.952905
8.493999
3.740602
7.583487
2.153545
10.372160
6.068330
6.020422
1.731266
9.379995
4.618593
8.445330
7.952786
6.930484
1.617910
10.288387
8.433935
7.292690
5.174004
5.610126
7.195944
4.620320
4.284970
5.124437
3.395511
6.052060
3.056515
6.500048
2.975827
5.933186
3.116225
2.470254
2.450842
2.871875
1.041415
-0.278262
-0.690479
-2.647122
-2.888814
10.076089
2.975357
12.065955
2.862926
2.372621
2.294212
7.604192
2.361545
1.887820
1.783803
4.948204
0.529092
-1.898415
-1.698137
-6.732372
-4.470400
-8.758443
-4.033761
-7.801897
-5.250052
5.070777
3.120415
3.909295
4.622566
8.290745
3.923238
3.478515
5.048728
9.203681
5.292503
2.190930
6.465716
12.936370
5.683553
0.828771
9.456457
16.531422
7.201391
1.812212
4.374984
11.607897
7.006565
7.099994
2.750255
10.405643
7.449683
7.312632
6.309081
8.148560
5.528008
4.938088
4.862407
3.078333
4.620800
1.187460
3.114267
0.715420
0.416359
-0.998056
2.360588
-0.653928
-1.086548
-0.334731
2.622312
0.270674
-0.695140
-0.183193
5.557942
3.172927
4.870951
4.508613
3.764369
7.369508
2.174746
9.548561
1.833302
2.592398
3.052263
0.423675
4.976936
6.340990
3.267408
0.338989
5.400149
6.132704
3.432578
-1.525171
5.634504
5.792438
2.857115
-2.823509
6.879912
6.108004
1.061092
-2.804574
5.581932
5.332659
3.908512
-2.534947
5.481279
5.922825
6.204709
-1.861444
5.304803
3.062059
5.415483
1.643380
6.248974
-1.317613
5.821154
-4.433888
7.456583
-7.793044
6.644756
-12.290487
6.375005
-12.610252
6.390558
-11.149065
6.478069
-9.692025
6.645633
-6.975647
5.909015
-5.032559
5.842416
-2.821581
4.283205
-2.132829
-2.751790
-2.811329
2.714268
-1.145693
-1.538741
-2.995594
6.336295
-4.641092
1.204127
-5.572644
-0.704264
-4.005388
-2.266851
-1.787938
-2.650481
0.242093
-5.125153
1.797375
-6.476009
3.252927
-7.504034
4.177435
-8.625931
5.239272
-1.886016
5.507254
1.596213
5.631005
5.647566
8.280179
2.699496
2.129520
0.012544
-0.575636
-11.043403
12.934369
0.844987
-0.079923
-2.515145
-2.242169
-12.348796
13.210956
0.477277
-0.242307
1.662863
5.800236
-1.590477
15.728187
-0.808549
11.378372
-0.627440
6.397137
-0.916179
4.293984
-2.109388
4.040999
-4.117662
3.660674
-4.193080
3.345787
5.049231
7.547750
5.054735
4.993679
-2.982016
7.438635
5.903620
6.832291
-3.091104
-3.357166
5.407245
6.960984
1.191699
-1.208785
4.820515
6.897734
4.755659
4.662469
0.782579
-0.476755
5.058808
6.224273
3.723071
0.694473
-0.169439
-0.256290
6.821444
5.617130
2.853879
1.505843
5.813077
5.217504
-0.003007
3.782897
-4.283336
4.213951
-7.509070
6.709436
-3.338336
2.714944
-2.368343
4.351710
-1.160961
6.024784
0.631112
4.397790
1.712981
3.930145
2.706251
1.276562
4.953587
2.770243
8.762146
3.525287
2.284617
3.519198
4.440052
2.918910
2.689447
4.520484
6.272702
7.148592
2.639511
7.401137
2.977224
5.753831
3.338360
6.881990
6.779784
5.034228
4.436270
4.894771
3.861532
4.753824
2.943265
4.741568
3.624881
3.174726
2.527963
5.688413
4.789527
4.934780
3.770026
2.080140
2.279119
-1.389974
0.055914
0.520378
1.462066
-0.912462
4.670828
-1.851954
0.724283
-1.065855
5.122345
-3.348829
0.207227
6.629788
4.903360
2.590791
4.917825
0.987274
7.035260
-0.509975
0.589205
-6.918986
-6.878410
-1.193350
-2.065459
-4.479925
-2.780089
-1.358181
-0.605586
-0.983173
-0.243732
2.469488
-0.795730
-3.292748
-3.853302
4.053312
-2.072202
0.723979
-4.215782
3.999719
1.551311
1.039085
-4.593581
2.575727
-3.097932
1.605941
-3.486169
4.324150
8.821363
7.043703
-4.956123
5.508889
6.874314
7.458536
-3.862694
6.290028
6.830114
7.193378
1.230711
5.753584
6.465271
7.405661
1.989969
6.241968
3.757729
6.926954
1.251292
8.866916
10.862235
9.293994
2.482603
6.153638
1.065168
10.537846
2.899306
7.274147
0.307911
12.565540
5.705726
6.428891
0.238733
10.683156
4.378721
6.250979
3.086877
1.535118
0.765474
6.430054
5.839734
6.066538
5.696134
7.626129
5.086293
8.254797
5.710552
7.585759
3.811751
7.451075
2.677282
3.932066
2.144220
5.229081
-0.335906
5.551199
3.121461
0.958761
-2.435184
-3.073813
-3.272017
9.262210
4.345350
9.467712
3.413334
7.554965
2.485145
6.094775
1.096175
-0.010088
-1.320586
-6.947745
-6.072383
3.813165
2.683971
7.216057
3.556790
8.193710
4.150073
15.384699
6.295856
15.397934
9.553133
1.658637
4.879099
11.858712
10.199709
3.910507
3.171453
10.073116
8.374931
8.205159
4.306889
7.528171
3.712170
5.831554
3.569178
2.916018
4.931455
0.666120
4.341078
-2.293655
0.053461
0.513192
5.148782
-5.008512
-1.788543
0.396475
4.840331
-3.921186
-0.757399
-0.058511
6.028666
-0.028173
5.663057
2.192905
4.725645
2.940824
3.963925
3.710162
1.652373
1.811782
3.595263
0.801435
5.472405
4.918623
2.727452
2.539982
4.638402
6.254241
2.510607
-0.687436
5.475595
6.252164
0.266140
-2.142620
-0.372789
-2.992543
1.832996
-2.818481
4.069661
-2.996790
4.267733
-0.811800
5.210730
4.757739
5.101204
-0.778041
5.862259
-1.555189
6.106050
-2.411644
6.870381
-5.685950
6.783180
-9.014546
5.972361
-11.618070
5.001321
-9.734351
4.142366
-7.501887
4.308429
-5.628111
3.296391
-3.720514
2.924466
-2.301780
2.172638
-2.025320
-1.695823
-1.980156
1.072797
-1.114158
-0.576654
-1.656634
3.699326
1.089321
0.554146
-2.756411
1.578555
-3.107813
-2.962552
-4.403832
-2.452462
-4.001171
-2.051265
-2.608547
-2.159896
0.726515
-2.539639
2.651565
-5.192268
3.828483
-6.908875
1.803239
0.107414
-6.290066
-6.776766
-1.665502
-10.332872
-3.914584
1.324123
4.963909
0.983576
-1.367623
-2.839091