# vtk DataFile Version 1.0
vtk file 3j3q_1:LX:aS_model1
ASCII
DATASET POLYDATA

POINTS 17954 double
7.092000 -19.998000 -22.630000
7.887000 -19.808000 -22.630000
12.209000 -20.000000 -20.615000
12.875000 -19.947000 -20.415000
11.193000 -19.943000 -17.540000
12.320000 -20.064000 -17.350000
10.356000 -19.992000 -16.531000
13.113000 -19.934000 -16.445000
9.925000 -20.050000 -15.708000
13.112000 -19.890000 -15.461000
9.606000 -19.883000 -14.579000
13.040000 -19.831000 -14.521000
-0.802000 -19.779000 -10.468000
0.906000 -19.990000 -10.269000
13.297000 -20.007000 -10.401000
16.036000 -20.121000 -10.502000
-1.753000 -19.850000 -9.465000
1.374000 -20.015000 -9.389000
4.451000 -19.819000 -9.445000
6.228000 -20.047000 -9.238000
13.034000 -19.928000 -9.580000
22.206000 -20.069000 -9.255000
-2.890000 -19.889000 -8.441000
1.520000 -20.105000 -8.413000
4.119000 -19.970000 -8.631000
6.439000 -20.178000 -8.528000
10.104000 -19.816000 -8.465000
11.256000 -20.077000 -8.455000
12.112000 -19.936000 -8.573000
22.158000 -20.052000 -8.490000
-2.914000 -19.923000 -7.532000
17.914000 -19.866000 -7.406000
19.948000 -20.181000 -7.615000
21.338000 -19.895000 -7.437000
-2.587000 -19.957000 -6.561000
16.996000 -19.907000 -6.489000
-2.704000 -19.981000 -5.532000
16.418000 -19.940000 -5.264000
-2.841000 -20.007000 -4.461000
15.921000 -19.831000 -4.506000
-8.696000 -19.788000 -3.438000
-6.547000 -20.100000 -3.401000
-2.892000 -19.936000 -3.402000
15.401000 -20.088000 -3.443000
-9.592000 -19.991000 -2.454000
-5.992000 -19.919000 -2.453000
-3.545000 -19.775000 -2.402000
15.922000 -20.116000 -2.257000
-10.695000 -20.100000 -1.434000
-5.536000 -20.023000 -1.541000
-4.895000 -20.034000 -1.482000
16.241000 -20.007000 -1.461000
-10.844000 -20.094000 -0.510000
16.237000 -20.007000 -0.461000
-9.985000 -20.072000 0.749000
15.975000 -19.979000 0.457000
-9.104000 -20.135000 1.493000
15.305000 -19.881000 1.478000
-7.931000 -20.121000 2.423000
16.197000 -20.223000 2.422000
-7.520000 -19.967000 3.384000
-3.488000 -20.007000 3.594000
-0.058000 -20.165000 3.492000
18.176000 -20.174000 3.654000
-0.680000 -19.856000 4.419000
18.478000 -20.007000 4.539000
-0.778000 -19.924000 5.373000
9.479000 -19.956000 5.665000
12.270000 -20.221000 5.489000
18.356000 -20.007000 5.539000
-0.505000 -19.913000 6.373000
3.049000 -19.990000 6.646000
4.362000 -20.107000 6.571000
9.080000 -19.973000 6.518000
14.348000 -20.211000 6.580000
18.178000 -20.007000 6.539000
-0.551000 -19.811000 7.428000
2.136000 -19.961000 7.596000
4.426000 -19.978000 7.373000
8.920000 -20.124000 7.482000
14.942000 -20.078000 7.543000
18.033000 -19.840000 7.459000
-1.539000 -19.959000 8.660000
1.161000 -20.057000 8.721000
4.149000 -19.988000 8.311000
8.103000 -20.017000 8.393000
16.103000 -20.093000 8.534000
17.062000 -19.893000 8.515000
-1.987000 -19.962000 9.511000
1.295000 -20.111000 9.706000
3.061000 -20.057000 9.385000
6.186000 -19.996000 9.763000
-1.879000 -19.965000 10.597000
1.367000 -20.062000 10.706000
2.486000 -20.003000 10.404000
5.937000 -19.951000 10.450000
-0.892000 -20.112000 11.486000
1.253000 -19.968000 11.586000
2.999000 -20.043000 11.461000
5.150000 -19.959000 11.477000
-3.914000 3.998000 -30.245000
-2.620000 3.900000 -30.480000
-3.867000 3.974000 -29.415000
-2.623000 4.016000 -29.673000
-1.843000 3.994000 -28.337000
-1.062000 3.802000 -28.608000
-1.924000 4.026000 -26.514000
-0.009000 3.924000 -26.420000
-5.903000 4.009000 -25.281000
0.989000 3.840000 -25.568000
-5.853000 4.002000 -24.294000
1.179000 4.022000 -24.664000
-5.834000 3.998000 -23.544000
0.405000 4.175000 -23.581000
-9.491000 3.882000 -22.222000
0.342000 4.023000 -22.532000
-9.643000 3.882000 -21.294000
0.019000 4.093000 -21.561000
16.009000 4.155000 -21.472000
19.288000 3.854000 -21.615000
-9.467000 3.862000 -20.294000
-0.122000 4.021000 -20.532000
15.439000 3.993000 -20.546000
19.371000 3.998000 -20.563000
-9.419000 3.812000 -19.347000
-0.191000 4.228000 -19.540000
15.058000 4.072000 -19.471000
19.451000 3.871000 -19.461000
-8.970000 4.093000 -18.431000
-0.748000 4.064000 -18.542000
14.623000 3.748000 -18.378000
19.285000 4.160000 -18.489000
-8.752000 4.103000 -17.389000
-4.790000 4.090000 -17.414000
15.202000 3.951000 -17.462000
18.321000 3.985000 -17.311000
-8.940000 3.915000 -16.256000
-5.780000 4.012000 -16.385000
16.002000 3.891000 -16.453000
17.866000 3.995000 -16.650000
-8.814000 3.862000 -15.304000
-6.166000 4.095000 -15.682000
-7.961000 3.870000 -14.466000
-6.994000 3.920000 -14.627000
-11.724000 4.045000 -3.248000
-7.721000 3.878000 -3.479000
-12.004000 3.893000 -2.361000
-7.105000 3.819000 -2.590000
-11.802000 3.993000 -1.461000
-6.901000 4.041000 -1.476000
-4.732000 3.962000 -1.301000
-3.583000 3.894000 -1.544000
-11.626000 4.093000 -0.561000
-3.010000 3.785000 -0.634000
-11.682000 3.937000 0.398000
-6.748000 4.107000 0.488000
-11.748000 3.932000 1.539000
-7.943000 4.174000 1.555000
-11.794000 3.953000 2.535000
-8.525000 4.093000 2.517000
-12.528000 4.160000 3.522000
-8.444000 3.893000 3.334000
-13.609000 4.191000 4.549000
-6.799000 3.952000 4.465000
-16.413000 4.176000 5.586000
-3.868000 3.791000 5.579000
-16.499000 4.164000 6.441000
-2.796000 3.930000 6.663000
-16.172000 3.793000 7.509000
-1.975000 3.795000 7.584000
-16.460000 4.153000 8.530000
-1.916000 4.000000 8.439000
-17.794000 4.042000 9.495000
-1.752000 3.876000 9.303000
-19.556000 4.039000 10.512000
-2.763000 3.947000 10.578000
-19.694000 4.093000 11.439000
-3.371000 4.245000 11.531000
-19.451000 4.038000 12.402000
-3.141000 3.923000 12.531000
-18.882000 3.905000 13.383000
-2.708000 3.869000 13.411000
-18.746000 3.953000 14.468000
-15.684000 4.067000 14.769000
-13.970000 4.046000 14.732000
-12.809000 4.016000 14.656000
-8.932000 3.925000 14.485000
-2.560000 4.065000 14.348000
-19.136000 3.880000 15.459000
-16.152000 4.007000 15.639000
-8.128000 3.844000 15.347000
-1.902000 3.798000 15.555000
-19.419000 4.132000 16.333000
-16.203000 4.224000 16.463000
-9.766000 4.156000 16.580000
-1.016000 4.054000 16.752000
-18.876000 3.902000 17.357000
-16.818000 4.191000 17.541000
-10.697000 4.098000 17.444000
-0.953000 4.116000 17.708000
-13.112000 4.176000 18.488000
-0.884000 3.961000 18.639000
-13.446000 3.862000 19.589000
-4.687000 4.056000 19.605000
-3.932000 3.818000 19.407000
-0.927000 4.194000 19.474000
-13.044000 3.993000 20.598000
-5.925000 4.198000 20.652000
-11.974000 3.941000 21.738000
-6.588000 4.013000 21.595000
-2.107000 28.041000 8.583000
-0.110000 27.776000 8.435000
-2.540000 27.780000 9.554000
0.454000 27.890000 9.354000
-13.035000 28.075000 10.639000
-12.036000 27.786000 10.419000
-1.884000 27.845000 10.698000
0.427000 27.980000 10.402000
-13.986000 28.039000 11.462000
-11.005000 27.821000 11.427000
-5.543000 27.948000 11.600000
-4.785000 27.857000 11.550000
-14.453000 27.778000 12.505000
-10.671000 27.935000 12.329000
-6.900000 28.157000 12.510000
-3.660000 28.115000 12.513000
-13.894000 27.874000 13.621000
-10.955000 28.050000 13.373000
-9.437000 27.956000 13.634000
-3.112000 27.814000 13.428000
-13.477000 27.804000 14.571000
-11.071000 27.961000 14.320000
-9.014000 28.129000 14.555000
-2.795000 27.943000 14.301000
-9.091000 28.252000 15.556000
-0.618000 27.905000 15.328000
-10.659000 27.983000 16.583000
0.001000 27.781000 16.488000
-12.687000 27.914000 17.521000
-3.761000 28.032000 17.498000
-2.785000 28.004000 17.755000
-0.016000 27.885000 17.536000
-14.067000 28.064000 18.539000
-3.679000 28.032000 18.297000
-2.634000 27.992000 18.423000
-0.532000 28.069000 18.467000
-14.507000 28.123000 19.459000
-3.027000 27.975000 19.437000
-14.403000 28.016000 20.321000
-2.072000 27.765000 20.531000
-14.108000 27.996000 21.563000
-1.953000 27.877000 21.539000
-14.042000 27.992000 22.706000
-9.656000 28.119000 22.547000
-7.617000 27.853000 22.513000
-2.220000 27.947000 22.341000
-13.700000 27.974000 23.706000
-9.813000 27.991000 23.373000
-16.749000 27.964000 24.627000
-15.788000 27.991000 24.427000
-13.527000 27.973000 24.638000
-9.560000 28.106000 24.484000
-13.202000 28.079000 25.738000
-8.957000 27.820000 25.476000
-13.052000 27.983000 26.573000
-9.071000 27.927000 26.486000
-12.582000 27.957000 27.425000
-9.851000 27.996000 27.420000
-10.182000 -20.230000 -2.003000
-10.362000 -20.139000 0.316000
-9.260000 -19.876000 -2.779000
-9.433000 -20.122000 1.286000
-8.088000 -19.922000 -3.747000
-8.482000 -19.818000 2.024000
-7.149000 -19.880000 -3.793000
-7.245000 -19.858000 3.838000
-6.273000 -19.938000 -3.215000
-6.381000 -20.058000 3.961000
-5.154000 -20.232000 -1.200000
-5.410000 -19.997000 4.190000
-4.292000 -19.887000 -1.959000
-4.260000 -20.115000 3.968000
-3.203000 -20.028000 -2.632000
-3.087000 -20.076000 3.377000
-2.307000 -19.848000 -9.030000
-2.210000 -19.904000 3.064000
-1.292000 -19.888000 -9.955000
-1.410000 -20.016000 2.779000
-1.136000 -19.956000 8.228000
-1.258000 -20.189000 11.202000
-0.101000 -19.872000 -10.637000
-0.563000 -19.873000 3.055000
-0.193000 -20.190000 4.101000
-0.457000 -19.844000 11.819000
0.662000 -19.818000 -10.558000
0.472000 -19.859000 11.995000
1.931000 -20.000000 -7.989000
1.572000 -20.019000 7.932000
2.857000 -19.986000 -7.809000
2.571000 -20.033000 7.031000
2.783000 -20.089000 9.838000
2.591000 -20.000000 10.964000
3.781000 -20.179000 -7.937000
3.624000 -20.228000 6.269000
3.747000 -20.099000 8.870000
3.612000 -20.028000 12.043000
4.924000 -19.872000 -9.692000
4.577000 -19.961000 11.848000
5.822000 -19.821000 -9.725000
5.652000 -19.938000 10.930000
6.804000 -20.005000 -8.254000
6.736000 -20.064000 9.158000
7.675000 -19.898000 -23.034000
7.690000 -19.830000 -22.292000
7.761000 -19.971000 -7.668000
7.706000 -20.237000 8.750000
8.884000 -20.038000 -7.800000
8.661000 -20.159000 7.993000
9.644000 -19.909000 -15.228000
9.802000 -19.758000 -14.253000
9.797000 -20.149000 -8.208000
9.905000 -20.035000 5.309000
10.803000 -20.048000 -17.111000
10.590000 -19.964000 -13.936000
10.753000 -19.877000 -8.573000
10.790000 -19.907000 4.960000
11.796000 -19.929000 -17.605000
11.477000 -19.884000 -13.910000
[...]
POINT_DATA 17954
SCALARS Potential double
LOOKUP_TABLE default
0.297242
0.669779
1.225018
0.572374
0.853008
-0.400773
0.390673
-2.138293
0.156578
-2.195399
-0.053155
-1.776199
1.855829
1.662509
1.532854
-2.328637
-2.170594
6.021088
-2.535303
-4.764608
3.074705
-1.180792
-5.977934
4.568173
-1.781601
-3.807680
-1.591462
1.859884
4.800666
-2.136283
-7.056501
2.942257
-3.092684
-2.589016
-5.497578
-0.371763
-6.466449
-2.889315
-9.884872
-2.052922
-7.399496
-10.476660
-11.605513
0.609514
-2.901286
-10.016353
-12.960982
2.036342
-0.722589
-8.243826
-9.428876
2.043734
0.103972
1.504347
0.702393
2.480049
-0.263576
5.812806
-3.361571
8.714348
-3.053034
2.675773
-0.420321
5.422276
0.110550
5.253450
-1.311789
6.034340
7.374294
5.400839
-3.306003
-3.036059
-4.263700
7.771395
7.807024
5.337257
-5.476431
-3.616321
-3.750334
7.485153
9.286806
6.143409
-8.563645
-6.639958
-2.459552
4.336584
13.175893
6.788320
-9.063600
-8.045197
-2.778457
2.574396
-8.234101
-8.243478
-3.838320
3.180956
-7.376998
-7.559345
0.316783
3.207732
-1.585782
-0.653253
-2.154424
-1.437052
-2.601561
-2.398193
-4.015630
-6.935303
-5.383353
-7.354446
-2.330790
-8.250769
-0.042602
-7.441254
-1.375069
-6.732020
-2.507528
-5.667643
-3.925524
-5.040439
-3.916639
-5.467493
-4.083814
-3.953926
-5.451300
-4.789402
-3.704177
-3.653985
-5.305738
-5.348001
-3.151521
-2.982854
-7.997590
-3.956923
-2.213704
-1.794816
-11.972787
-5.282568
-1.709442
-1.945842
-12.987210
-9.854253
-13.104135
-12.648080
5.050146
7.522313
8.347219
3.040413
12.620028
1.821754
8.417482
5.527447
6.011131
5.521541
3.465117
-0.808130
-0.613799
-2.887704
-2.845454
-3.372378
-2.866416
-4.259937
-5.052061
-2.369676
-13.446608
5.465266
-12.380022
5.371253
-10.041484
6.149026
-6.215187
5.979228
-5.756259
5.830778
-4.580346
4.598362
-2.525147
4.204248
-1.049076
3.715584
-1.030915
2.437940
-3.073295
1.346723
2.794484
3.758304
5.349879
0.630469
-5.815920
-0.804126
6.942192
0.092042
-6.510385
-2.391762
7.800222
-4.471600
-7.343160
-5.088821
7.091498
-6.392643
5.901368
-7.967632
11.887645
-1.659703
-3.192011
-8.737558
10.009870
-0.193906
3.597054
0.595195
-5.035940
-4.171774
-5.397483
-5.418678
5.232073
1.911104
-6.369576
-6.382236
5.478931
-0.577172
-13.054631
-11.715378
6.797140
-0.490382
-6.563588
-9.002073
5.495516
1.082443
-0.822442
-8.483551
4.818236
1.338250
-0.628630
-5.601055
-1.414911
-5.967492
-0.593209
-6.758353
6.370627
-2.215042
-2.685134
-5.964335
5.859777
-2.453394
-2.980807
-4.741755
0.600094
-2.347006
-1.744955
-2.937122
-3.575462
-2.641855
-3.997483
-3.212765
-1.646664
-1.810173
-1.888606
-2.830380
1.583257
0.763574
-0.901478
-1.496288
-0.169400
-1.893019
-0.034358
-2.654125
-1.003999
-3.711618
-1.984845
0.577543
-4.376032
0.275649
-9.046348
-0.938893
-9.958868
-2.647991
-11.306232
-2.197789
-9.103069
-0.540289
-12.429506
1.424093
-11.851486
2.927910
-3.943956
4.360095
-0.673064
2.399805
-8.652935
-7.993754
1.531225
0.593610
-0.571380
-6.890215
1.676835
-8.424362
3.269061
-5.008668
1.955243
-3.112228
-3.399138
-2.484827
-0.136514
-3.741898
-2.193165
4.465632
-3.217309
3.545117
-4.012923
3.241622
-3.996601
2.572289
0.306053
0.903489
-2.393624
3.801185
-2.065269
5.178681
0.183331
-0.106838
-1.558276
4.850096
0.749070
-0.511218
0.142553
4.033296
0.391477
-0.927134
2.709496
5.737253
0.853679
0.700427
-1.351048
-1.391630
3.992549
7.630283
0.425591
7.124317
-0.949132
7.496837
-1.967003
-1.353250
1.740512
4.098359
7.970721
12.346700
-1.790402
-2.006970
11.021117
8.491088
-1.129722
1.856666
8.345004
4.989506
-2.727326
1.129626
-5.297848
-1.998024
-5.607406
-2.504239
-3.139874
-2.778016
-5.189817
-1.038618
-6.334629
-6.953979
-5.680508
-7.155472
-5.233909
-6.438333
-12.879761
-10.335589
-6.400915
-3.940954
-12.005115
1.619704
-8.360602
2.022084
-4.361460
4.952786
7.455263
13.946567
-3.861891
3.794122
6.250350
4.845469
8.226707
3.340716
7.662341
2.577514
16.792373
4.060612
7.803337
2.279483
-1.021737
-5.167210
10.915818
5.587242
7.617997
2.590581
0.415844
-12.104582
10.081895
-2.295661
-4.817996
5.363303
7.098457
2.577888
1.702086
-12.835960
4.616600
-1.611593
-3.563867
1.585641
1.006657
-12.147246
1.992738
0.846868
-1.828234
0.714549
-6.962667
-4.845552
3.762180
4.321976
1.240022
-0.727035
-6.457635
-4.578194
5.479370
6.721629
4.093435
-1.828516
-0.685616
-1.908669
-4.099711
-5.450919
6.352122
5.534485
5.576921
4.591308
3.290118
-7.019496
-3.625779
-5.886172
6.354328
5.020089
-0.585234
-9.098794
-2.160105
-3.164263
-4.701086
-6.101055
-3.532779
-8.553261
-5.826925
-5.422165
-7.346372
-7.664616
-3.694967
-3.495059
-4.749154
-1.878467
-4.161923
-1.489973
-4.325738
-1.619007
-4.705893
-1.990921
1.126444
1.293104
6.124319
6.713923
5.015297
-2.357233
5.903136
4.194728
8.492552
-0.397726
3.361188
2.702382
4.867387
-2.116389
0.650611
1.496299
1.943715
-4.482270
-1.280094
-5.197646
-2.081406
-0.726252
-1.784536
-2.026720
-1.756288
-3.478022
-4.935020
-1.140283
-5.821240
-1.281429
-10.482375
-0.925021
-13.934259
-0.952027
-10.071441
-0.948387
-8.939301
-2.468100
-2.316646
-1.178372
-5.344543
-7.250367
-4.897823
-2.655986
-3.032756
-1.748967
-4.144493
-6.337833
-5.254568
-3.462035
-4.124276
-6.716140
-6.494547
-5.269720
-1.993617
-0.435048
-5.902121
1.983206
-5.998656
2.795530
-7.252760
1.538391
-9.856097
0.033116
-13.950210
-1.707438
-1.578705
-2.825259
-10.353439
-2.528380
-1.059073
-3.093769
-0.459031
-4.388649
-0.839464
-5.557204
-0.463370
-6.973047
-1.530871
-8.135449
-3.105127
-9.948816
-2.384679
-11.626683
-12.243127
-10.634097
-1.490398
-12.115891
-12.115353
-12.110585
-0.443671
-8.022510
0.244728
-6.202275
0.807189
-5.605297
0.899267
-6.383973
-0.863508
-6.446243
0.983760
-6.282607
1.329023
-6.654951
1.012323
-5.741383
0.881390
-1.323012
-3.022180
-4.297887
0.606294
0.284242
-1.437921
-5.031202
-0.275964
-0.586047
-1.019211
-1.725913
-2.976561
-4.222899
0.325743
0.444775
1.478303
-1.888206
-2.481341
-5.352343
-0.087599
-6.094572
-1.817798
-8.069495
-1.963669
-4.387720
-0.728664
-3.147306
0.316282
-2.398448
-5.438639
-2.980351
0.176282
-5.516202
-4.071905
-2.490709
7.689026
-2.847487
-2.062714
-3.871179
0.595039
-0.337466
11.488208
-2.417761
-1.299872
-0.730814
12.054571
-0.932743
9.570718
7.681162
10.950272
-2.344000
0.791382
-2.535767
-2.379423
-1.932896
-5.321140
-1.250322
-3.468240
-1.009162
2.909024
-1.217437
-4.225814
-1.239560
5.050067
-0.412358
-2.269933
0.368973
7.829558
-0.558250
-1.973420
2.616189
6.372693
-0.265827
-3.098656
-0.471952
6.095777
0.069693
-3.829192
-0.440808
5.915437
0.035937
-1.577848
1.050654
2.408463
0.309618
-1.755809
2.929834
-2.682926
5.052528
-2.422533
5.153324
-1.896653
4.689903
-2.044192
4.814289
-2.325376
4.023989
-1.281313
3.597851
-0.929738
2.646247
-2.034441
1.534962
-2.267328
0.750045
0.605354
-0.947054
2.767838
-4.244266
3.274722
-4.196898
5.975282
0.619355
-1.760156
-3.345907
6.766097
10.977031
13.917006
4.137080
-2.577174
-1.813636
6.818088
7.665966
4.805395
6.438491
3.082971
2.726469
5.118983
3.468286
3.481583
1.887717
4.959478
0.451826
2.791449
1.483548
5.042680
-0.999379
0.310851
1.232907
4.622649
0.680234
4.431815
-0.295676
-2.629356
-0.580253
-3.233434
-7.112762
-5.473450
-0.858686
-3.434245
-8.217991
-5.385325
-1.340187
-5.661242
-11.011351
-4.771756
-1.725885
-1.057392
-1.751080
-7.643156
-9.743959
-5.691926
-2.123784
-7.548671
-7.510776
-5.716863
-2.396429
-6.738236
-1.550138
-8.956783
0.026058
-9.495966
-5.189753
-3.244798
-0.730891
-7.848793
1.248757
-9.747853
-6.441889
-2.675243
-1.117893
-10.470300
2.501191
-9.227654
-9.319897
-0.600920
-0.714396
-9.414016
4.774535
2.237089
0.420481
-8.876115
2.766296
4.246719
2.043252
-0.039819
0.875773
4.727536
3.429009
0.521839
-3.439108
10.900902
2.217061
-0.267748
-6.266609
4.179411
-5.815172
4.894970
11.402172
2.187752
-4.524627
0.577993
-5.994548
-0.754940
-7.732175
-3.500662
-8.859825
-5.126849
-9.238054
-10.102542
-11.877067
-11.447744
-14.572630
-11.879567
-14.070251
-1.003496
0.235958
-0.795286
0.929567
1.055401
-0.310784
0.400887
2.291216
1.754102
0.721539
3.639464
3.776868
2.711961
-1.560676
3.169195
-4.413608
3.741855
-5.968096
2.434297
-3.251904
-5.645711
-3.283238
1.118491
-2.872002
-3.751905
-2.738225
0.626588
-2.663946
0.179231
-3.261030
-0.652839
-6.496266
0.467937
-6.191200
-5.925340
-6.545420
1.720054
-4.023331
-4.527816
-5.315548
8.057812
3.305249
2.411501
3.232464
-2.917279
5.262468
-0.148027
-4.028669
3.611412
4.175001
-6.118155
-3.865567
-2.773973
1.431905
5.087371
1.206612
-7.195230
-0.117963
-6.913197
0.866603
-6.833872
-1.224659
-7.967502
-1.906331
-5.050090
-11.289380
-10.512183
1.576107
-0.892607
-8.375874
-11.901936
2.679486
0.065486
3.500709
0.848898
3.902502
1.866430
4.630306
2.750333
10.292769
-0.571308
9.667176
0.572207
8.011028
3.859532
8.136257
6.843571
7.345637
0.658603
2.428457
2.221989
7.478034
5.619009
12.146271
-0.337354
4.817010
5.987379
10.569627
-2.555285
4.241284
5.020475
10.753786
-3.554527
3.138913
6.232764
12.411218
-5.333502
3.298061
-4.895586
3.395562
-4.656794
3.305379
-4.683778
3.979669
-7.888997
4.337856
0.677670
4.059524
-6.080759
-9.442886
-2.160537
-9.991546
-0.787338
-7.554845
0.982841
-6.613238
0.329354
-5.164762
-2.138387
-4.927444
-3.673608
-2.515582
-3.335765
-4.610786
-3.274178
-3.242493
-4.956818
-4.638463
-2.692805
-3.069529
-5.987599
-0.445256
-7.098206
-3.941791
6.403533
5.946644
5.994410
3.108378
6.373286
0.932673
4.030284
-0.047347
0.374632
-2.530128
-1.363259
-3.928031
-1.851472
-4.536925
0.499157
-5.973214
-2.837926
-2.673522
-11.986383
3.008957
-11.248371
3.299055
-7.085170
4.917382
-2.927009
4.514325
-6.506321
2.676285
-5.077872
2.738285
-2.437103
3.383808
-0.319814
2.576059
-1.122528
0.629681
-2.215981
-1.921109
-3.105856
1.146089
3.181562
4.827732
5.181965
-4.246777
-4.186672
-0.600627
4.661541
5.313691
5.827762
-7.637393
-6.043698
-4.175211
4.566405
-8.202070
5.530866
-7.840711
10.044907
-8.311308
9.671118
-2.245770
10.496254
-1.627359
5.075807
6.244110
0.416379
-2.405198
-2.144395
-3.350669
-9.082395
-9.539941
4.301418
2.655246
-7.420546
-9.557912
-1.382580
-8.575532
-0.876288
-4.224369
-1.341967
-2.521459
-2.233923
-2.225756
0.658580
-1.890794
0.699171
-0.518421
-2.005858
-0.317203
-3.973125
-0.280605
-2.861086
-0.741440
-0.766126
-2.301175
-1.140195
-2.082443
-0.426354
-1.403233
-0.687607
-1.801712
-1.566969
2.981737
-2.677820
3.159149
-4.233452
3.016515
-6.579800
1.337502
-8.739202
1.028075
-10.324065
0.023204
-8.046318
-0.580120
-11.971324
0.284211
-5.150818
-8.097896
-12.019824
5.917259
-1.546062
7.692883
-5.228368
-4.252549
3.785998
6.266974
-5.220299
-4.778256
6.962014
-7.016468
3.392700
-6.592126
4.909904
-2.137473
2.955251
2.658560
0.560100
4.697588
-6.012169
-3.120795
-0.389171
3.962841
-1.030785
-0.331116
-4.206580
-2.523014
-1.602237
4.549131
-0.744980
1.717648
-3.015058
3.530113
-0.325206
3.391533
-3.037420
2.891150
1.485971
4.216309
3.127894
0.411991
-2.662807
5.169424
3.980641
-0.263080
-2.718859
3.826061
2.832368
-0.465409
-1.431359
3.450129
1.276694
-0.273241
3.892614
5.269355
1.190457
2.240867
4.965752
6.143792
1.813883
-4.101740
-3.314565
8.075989
2.962959
-6.236401
-3.687940
8.023008
1.974376
-5.584417
-6.019247
-0.329456
2.684884
4.639384
7.105843
6.475478
-0.395710
-0.861886
-3.031777
-1.852632
7.656655
6.479967
-5.901823
0.646315
7.455934
8.947932
-6.555145
1.153780
-6.545915
0.207934
-4.137161
0.207949
-2.851857
0.014842
-0.449242
-0.755379
3.910002
0.354100
-7.008559
-4.673353
-6.696312
-6.534942
-4.147096
-5.998176
-12.057321
-2.975036
-11.516504
1.692064
-7.233564
2.245505
-2.012575
4.682332
2.541110
9.134165
4.947659
3.984177
6.524774
2.905070
7.809375
4.334717
5.826330
2.995536
3.759295
5.831721
3.469753
-5.542970
2.373524
-3.676828
-4.492287
3.554680
6.732563
-7.067211
-0.018251
-3.577572
-5.424366
1.240126
2.717666
-6.033046
-3.857012
-1.162823
0.289694
-1.420718
0.270093
-2.230301
-2.054339
-3.316785
-1.660645
-1.420311
3.692950
-3.690953
-8.714900
-9.360606
-2.994017
-3.409436
4.897388
3.560049
0.774657
-6.767606
-3.955215
-4.468733
-3.839287
-9.313245
-7.514567
-4.973425
-5.801666
-9.466913
-8.556256
-4.339136
-7.015504
-8.108552
-4.243823
-2.096107
-3.351852
-1.569122
-3.041344
-1.524818
-3.147992
-2.404615
0.033203
-3.354057
3.905512
3.415120
0.991722
-4.413611
2.897360
2.895659
1.478746
-1.659803
-0.614044
-1.415865
1.482230
-1.188868
-0.549393
-2.091503
-0.831892
-1.364047
-1.075087
-1.527213
-2.332612
-0.713874
-2.867361
-0.595506
-4.149648
-0.137349
-5.293158
-0.901104
-0.468691
-0.900380
-9.905729
-1.421414
-0.775344
-1.141514
-10.062553
-5.378947
-1.391123
-1.325689
-1.984971
-1.671220
-5.800713
-0.636349
-5.883607
3.817660
-7.328781
-6.736821
-7.610303
1.851848
-7.364343
1.873646
-11.009880
0.816943
-11.072613
-0.964471
-1.599044
-2.046209
-1.691184
-2.480599
-2.964667
-3.062190
-3.303363
-5.137212
-1.421789
-5.081391
-1.667289
-5.975294
-2.160036
-7.800104
-2.526828
-6.919330
-2.290465
-8.781502
0.154152
-6.344314
1.098543
-4.987714
2.009905
-5.888603
1.977486
-6.777718
1.745162
-5.646333
1.950603
-6.197613
1.476323
-6.898335
0.926761
-6.775571
0.647940
-5.274305
-0.454380
-0.923890
-2.998757
-6.359946
-2.073560
-2.426861
-1.601022
-9.067447
-7.089098
-4.734277
-1.472231
-0.453896
-2.464594
-5.375971
-1.474866
-3.381794
-2.513486
-2.925882
-3.872799
-3.699116
-1.874742
-6.488847
-2.545526
-4.896436
-1.677075
-4.627643
2.937929
-4.990726
3.476027
-2.722295
-4.244140
-4.512933
-7.408211
-6.160751
0.336761
-4.814595
-5.263253
-6.518285
-0.087415
-0.240915
6.420869
-7.994972
-4.263075
-4.645912
0.084183
-0.120882
16.760786
-5.791516
-2.415621
-0.769069
9.952015
-2.245729
6.091030
-4.649759
7.062485
5.322096
5.021753
-4.348176
4.078018
6.324494
5.523768
-1.699061
-3.205273
3.383297
5.907990
-2.507529
-4.968960
-1.655856
3.751121
-0.878873
-3.451440
-1.074213
5.254214
0.207277
-1.407206
0.503073
7.925907
1.333904
-1.493007
1.765947
6.323477
-0.806980
-2.129018
-0.358980
5.272251
-0.224694
0.130032
-1.804556
5.178908
-0.633639
0.952851
5.639472
4.190107
-0.631475
5.588996
-0.606661
-0.500034
1.663664
-1.776373
3.216638
-2.097913
3.672507
-2.077672
3.764646
-2.026574
3.869034
-2.222920
3.618151
-1.183515
3.384254
-1.186728
2.492490
-1.212188
2.063211
-0.830653
1.234371
0.124639
-2.197970
3.543567
-4.488581
4.152512
4.214280
1.507750
1.154860
0.581941
-3.263319
5.345682
7.758722
0.131025
-2.698052
5.740101
9.497988
-0.687014
-1.924889
6.010877
8.240005
6.756451
7.567977
3.374611
2.405881
4.736036
5.254179
4.144011
2.051315
5.027144
2.938858
3.807810
1.640621
5.166482
0.584976
0.013628
1.381751
6.105530
1.158016
6.802434
0.389471
-3.088758
-1.076257
4.628387
-0.945630
-4.284472
0.033073
1.689685
-1.290767
-5.118539
-9.200682
-7.871070
-1.984537
-8.145574
-0.516055
-3.049532
-2.575279
-10.469050
-1.546937
-10.113882
-3.111068
-10.883223
-2.371218
-10.460205
-8.558376
-3.955368
-1.024971
-10.060500
-10.443812
-2.075295
0.799213
-1.345219
-2.225356
-8.585518
2.015044
-0.676639
-1.635310
-8.199428
3.984071
1.349652
0.258055
-6.713474
4.040020
1.888863
0.865067
-2.458823
0.383519
1.623023
1.196252
1.362801
-2.050127
2.392409
0.841615
-0.321715
-4.086660
2.527358
-4.192694
1.223645
-3.601717
0.027787
-5.418220
0.410928
-7.113502
0.291976
-8.547119
-0.475796
-8.666686
-7.098609
-10.493526
-10.039743
-13.418721
-10.857289
-13.831199
-11.842767
-13.210645
-1.233749
-0.351627
-1.602528
-0.308904
-1.809607
-0.188884
0.207316
0.637493
-1.016695
4.273798
-0.865027
8.811173
-1.609449
-2.467315
-3.171594
1.176751
3.421144
-5.888043
-6.824540
-4.724258
-5.524247
-2.940012
-3.360884
-3.308291
0.123321
-3.607287
-4.235871
-2.346569
1.359199
-0.430424
-0.569406
-3.902745
-2.254732
-0.921203
1.206583
-0.866550
0.811589
-0.123212
-0.217440
-0.990354
1.156944
0.632600
7.040464
3.525325
0.245685
-1.940144
1.268143
1.252690
0.405920
-2.395425
-6.795846
-2.964796
1.652053
1.597163
-4.097223
1.185746
-6.873100
0.313121
-3.996391
0.357820
-6.113217
1.818585
-3.614780
-3.412591
-6.789499
-0.151826
-3.085809
-4.677982
-9.604948
4.628910
-1.389241
-8.488254
-12.127141
7.125179
0.001976
-7.979951
-10.292089
6.947199
1.038798
5.251295
2.227259
5.499428
3.606106
9.429954
5.715250
13.055299
2.796913
4.701333
5.691593
7.111888
3.625051
7.743459
3.771876
6.104834
3.401597
2.863941
1.752410
4.980180
-0.498707
3.698682
-1.730740
4.130930
-2.894948
3.489093
-3.025822
3.436163
-5.211137
3.341977
-4.395618
2.993665
-3.978596
3.393029
-7.057399
3.989230
-0.279015
2.320000
-1.178058
-2.656168
0.774677
-4.064190
3.320641
-3.801133
-2.043934
-4.079392
-2.517427
-3.786616
-3.140949
-2.765907
-3.480449
2.781581
-4.634704
7.437319
3.647083
4.645964
3.516361
0.880507
1.336734
-0.743290
-1.374648
-0.691956
-2.093457
-1.810171
-1.581917
-1.516917
1.719248
-3.377283
0.196982
-1.195077
-9.835256
1.847318
-8.158445
3.007018
-4.821841
4.093180
-0.877860
2.526066
-3.995291
1.249806
-2.199241
2.045456
0.516448
3.514071
0.628886
2.013432
-1.364365
-1.337589
-1.770397
-3.782421
-1.217754
-7.527571
-2.450080
0.425285
2.480434
-8.232240
-5.461394
-1.861858
3.370180
-8.497309
-6.791740
-4.988110
4.546692
-6.690620
6.145855
-5.362131
8.923837
-6.409307
11.061689
-3.199963
5.685178
5.466641
0.922697
-4.062220
-0.421345
-9.791847
-3.371175
-9.361622
-8.656462
-10.018847
-10.762748
-10.547537
-1.353001
-2.599097
-1.252177
-2.676896
-1.230393
-2.184584
0.073283
-1.111868
-0.920235
-0.759688
-2.984117
-0.503236
-2.892872
-0.423908
-1.008858
-0.724847
-1.023986
4.866199
-2.039583
5.733342
-4.211272
-2.392275
-3.094848
7.019594
-1.206803
4.066438
-6.277966
2.595920
-8.591646
0.958149
-6.411597
0.301469
-9.835937
0.630165
-11.786804
7.772063
-4.144957
-5.213575
-1.599492
6.466567
-3.325183
-4.147352
4.030236
2.451721
-2.150379
-4.455165
6.640186
-6.439451
4.523210
-5.956936
3.743538
-2.522801
2.698051
1.945060
-6.613904
-3.746055
1.549604
3.235504
-1.536267
-1.812410
-5.907579
1.333752
-0.724152
2.652432
-1.437800
1.754737
0.455397
3.528283
-0.787891
2.279854
1.859112
3.068431
-0.366632
-0.852169
-2.779034
3.216534
-0.418539
-0.629733
-4.297198
4.396556
0.189950
-0.318944
-7.498988
3.836622
0.467550
-0.636809
-5.765569
4.463736
0.921236
-0.024264
0.829410
5.737017
1.301830
8.675679
2.291258
-3.546373
-2.878926
13.596375
6.271970
-5.903326
-4.506675
2.118192
5.552996
6.107677
8.005231
-6.397349
-5.324544
-0.652906
1.388120
2.288055
-2.933798
1.022885
-2.446143
1.952110
-2.497688
1.830738
-3.471141
1.684005
-2.746009
1.706778
-0.960977
1.866344
-1.141109
0.762350
-1.109217
-0.096708
-0.633155
0.242635
-4.301785
-4.025158
-4.085028
-6.422831
-1.682543
-5.848806
-2.373732
-4.015273
-10.100625
0.902279
-6.657087
1.930633
0.125286
-2.739372
-2.322419
3.940799
2.416327
7.505340
4.058442
2.344721
4.159120
3.664298
3.792096
7.443157
1.273446
-2.855757
2.557085
4.196820
7.675411
-2.976670
0.434487
-2.243087
-4.013095
1.969610
2.743614
0.606250
-3.215291
-4.950692
0.010300
5.356191
0.809445
-11.151477
-1.642900
0.675784
1.173265
-4.135684
-3.343213
-10.693299
-2.088931
-1.714043
2.936059
3.132545
0.381892
-5.594259
-7.399576
-10.689241
-2.928721
-3.314191
-4.847031
-6.195523
-9.268578
-10.314042
-3.864014
-3.490731
-7.059128
-6.683306
-7.865090
-8.205574
-3.222289
-2.571432
-2.028236
-3.018366
-0.078371
-1.694301
0.320254
-0.854202
-0.532120
-0.839704
-1.037437
-0.601404
-1.746422
-1.350299
-2.375066
-1.545974
-2.912577
-1.855479
-6.955042
-8.217669
-7.341501
-2.764704
-6.375445
-1.689031
-8.008330
1.272188
-8.630260
6.107264
-9.014870
2.742292
-4.096400
-5.566631
-7.998528
-0.048131
-1.255849
-1.957301
-2.191690
-1.413994
-2.315359
-2.383969
-6.102423
-3.202114
-6.051781
-4.413209
-5.182685
-4.431999
-4.320939
-4.759227
-2.098753
-4.614046
-4.065739
-4.768588
-4.988294
-5.234257
-2.641533
-5.852473
0.804518
-5.804122
3.051728
-5.332941
4.150535
-5.754212
3.065148
-5.033395
3.865178
-4.997030
3.637485
-4.638717
1.654969
-5.981626
0.817020
-6.973373
0.372186
-6.868197
-1.004665
-1.113367
-2.525620
-10.353258
-2.669248
-2.614285
-1.784132
-3.687469
0.797387
-0.426922
-3.020518
-2.973202
-6.264087
-2.648248
-4.331870
-2.812847
-7.144853
-4.761906
-4.968951
-6.526763
-2.743279
-6.893585
-1.806788
-4.172689
-1.887936
0.447808
-10.036013
-9.106654
-2.084572
-5.025703
-7.809699
-8.067001