# vtk DataFile Version 1.0
vtk file 3j3q_1:RAA:eh_model1
ASCII
DATASET POLYDATA

POINTS 17960 double
9.844000 -21.759000 -15.399000
12.452000 -21.861000 -15.348000
9.480000 -21.790000 -14.509000
13.395000 -21.902000 -14.342000
9.525000 -21.690000 -13.609000
13.688000 -21.890000 -13.409000
9.997000 -21.778000 -12.629000
13.887000 -21.790000 -12.509000
10.496000 -21.972000 -11.656000
13.893000 -21.690000 -11.609000
10.485000 -21.856000 -10.676000
13.789000 -21.762000 -10.509000
10.589000 -21.727000 -9.522000
13.606000 -21.735000 -9.616000
19.531000 -21.742000 -0.564000
21.592000 -22.005000 -0.426000
17.837000 -21.629000 0.488000
22.635000 -21.958000 0.633000
17.468000 -21.721000 1.267000
23.393000 -21.759000 1.645000
16.623000 -21.873000 2.505000
23.410000 -21.568000 2.417000
14.016000 -21.608000 3.550000
18.109000 -21.901000 3.655000
19.625000 -21.923000 3.378000
22.799000 -21.686000 3.584000
13.729000 -21.697000 4.324000
22.879000 -21.710000 4.450000
13.908000 -21.665000 5.390000
23.774000 -21.794000 5.605000
14.291000 -21.985000 6.336000
24.272000 -21.627000 6.541000
13.922000 -21.775000 7.458000
23.864000 -21.623000 7.499000
13.447000 -21.719000 8.461000
22.704000 -21.567000 8.630000
13.099000 -21.573000 9.484000
21.731000 -21.623000 9.689000
13.368000 -22.030000 10.374000
21.386000 -21.748000 10.591000
12.452000 -21.755000 11.313000
21.606000 -21.827000 11.529000
9.956000 -21.734000 12.504000
22.079000 -21.834000 12.347000
8.012000 -21.852000 13.727000
24.587000 -21.833000 13.655000
7.745000 -21.817000 14.657000
24.870000 -21.759000 14.491000
7.866000 -21.916000 15.511000
24.724000 -21.586000 15.543000
9.819000 -21.802000 16.495000
17.808000 -21.832000 16.578000
18.538000 -21.989000 16.364000
23.908000 -21.844000 16.579000
19.904000 -22.025000 17.327000
23.007000 -21.708000 17.571000
9.544000 2.311000 -18.487000
10.794000 2.134000 -18.611000
-39.330000 2.221000 -17.531000
-33.408000 2.100000 -17.322000
3.778000 2.097000 -17.294000
15.887000 2.184000 -17.388000
-41.318000 2.290000 -16.523000
-33.038000 2.233000 -16.438000
-25.311000 2.336000 -16.492000
-23.364000 2.243000 -16.370000
3.583000 2.185000 -16.418000
16.346000 2.191000 -16.430000
-41.385000 2.230000 -15.581000
-33.179000 2.177000 -15.343000
-27.431000 2.314000 -15.552000
-21.345000 2.243000 -15.355000
3.096000 2.247000 -15.423000
16.702000 2.278000 -15.579000
-41.027000 2.190000 -14.693000
-33.460000 2.248000 -14.485000
-28.224000 2.357000 -14.528000
-20.463000 2.257000 -14.364000
1.698000 2.287000 -14.499000
16.707000 2.297000 -14.617000
-39.064000 2.135000 -13.677000
-34.410000 2.250000 -13.579000
-29.447000 2.234000 -13.403000
-19.355000 2.256000 -13.356000
-0.108000 2.398000 -13.422000
15.831000 2.268000 -13.536000
-38.626000 2.254000 -12.512000
-35.053000 2.189000 -12.394000
-29.606000 2.110000 -12.409000
-18.162000 2.125000 -12.409000
-0.359000 2.161000 -12.648000
14.538000 2.319000 -12.561000
-39.152000 2.271000 -11.329000
-35.016000 2.210000 -11.388000
-29.643000 2.347000 -11.627000
-17.312000 2.079000 -11.469000
-1.060000 2.188000 -11.441000
14.410000 2.298000 -11.509000
-39.353000 2.110000 -10.409000
-34.645000 2.133000 -10.388000
-29.726000 2.334000 -10.549000
-15.323000 2.136000 -10.527000
-1.522000 2.266000 -10.611000
14.682000 2.161000 -10.485000
-39.017000 2.205000 -9.438000
-34.119000 2.098000 -9.640000
-30.032000 2.067000 -9.427000
-11.112000 2.139000 -9.737000
-2.011000 2.423000 -9.572000
14.898000 2.210000 -9.557000
-38.876000 2.047000 -8.554000
-33.896000 2.327000 -8.751000
-29.933000 1.994000 -8.408000
-9.342000 2.159000 -8.456000
-3.272000 2.389000 -8.360000
17.919000 2.022000 -8.539000
-38.352000 2.139000 -7.541000
-33.172000 2.204000 -7.626000
-29.322000 2.219000 -7.501000
-7.425000 2.043000 -7.481000
-3.999000 2.252000 -7.421000
18.817000 2.043000 -7.500000
-38.054000 2.204000 -6.438000
-32.307000 2.263000 -6.372000
-29.253000 2.212000 -6.489000
18.852000 2.310000 -6.609000
-37.818000 2.011000 -5.606000
-31.374000 2.108000 -5.679000
-30.177000 2.433000 -5.496000
18.473000 2.323000 -5.542000
-37.637000 2.139000 -4.579000
-1.433000 2.242000 -4.402000
-0.134000 2.109000 -4.535000
17.942000 2.080000 -4.601000
-37.653000 2.377000 -3.635000
-6.115000 2.102000 -3.422000
0.505000 2.000000 -3.564000
16.861000 2.198000 -3.382000
-38.280000 2.210000 -2.468000
-11.378000 2.346000 -2.262000
-9.426000 2.056000 -2.483000
-7.181000 2.213000 -2.507000
0.483000 2.081000 -2.509000
16.193000 2.400000 -2.457000
-38.459000 2.310000 -1.609000
-11.655000 2.402000 -1.528000
0.446000 2.139000 -1.609000
16.438000 2.125000 -1.604000
20.122000 2.278000 -1.357000
23.637000 2.260000 -1.555000
-38.254000 2.161000 -0.689000
-12.152000 2.210000 -0.608000
0.880000 2.117000 -0.760000
16.834000 2.247000 -0.719000
19.757000 2.377000 -0.571000
24.737000 1.998000 -0.403000
-38.265000 2.260000 0.324000
-12.350000 2.249000 0.491000
1.868000 1.998000 0.455000
26.734000 2.153000 0.635000
-38.002000 2.299000 1.252000
-12.522000 2.370000 1.572000
2.432000 2.470000 1.533000
27.062000 2.228000 1.482000
-36.395000 2.019000 2.388000
-19.389000 2.316000 2.402000
-17.282000 2.147000 2.455000
-15.114000 2.260000 2.621000
1.603000 2.193000 2.375000
27.332000 2.205000 2.609000
-33.231000 2.265000 3.588000
-22.381000 2.326000 3.466000
0.176000 2.311000 3.682000
27.803000 2.281000 3.503000
-32.671000 2.036000 4.314000
-23.093000 2.393000 4.367000
0.097000 2.181000 4.367000
28.421000 1.970000 4.589000
-32.976000 2.214000 5.432000
-23.137000 2.340000 5.269000
-13.065000 2.359000 5.525000
-12.314000 2.225000 5.638000
0.509000 2.093000 5.338000
28.499000 2.082000 5.465000
-33.013000 2.310000 6.391000
-22.224000 2.228000 6.403000
-13.342000 2.241000 6.313000
-9.612000 2.455000 6.549000
2.632000 1.985000 6.495000
7.485000 2.244000 6.438000
8.812000 2.127000 6.480000
27.899000 2.333000 6.435000
-32.991000 2.224000 7.341000
-21.566000 2.022000 7.475000
4.801000 1.977000 7.514000
6.585000 2.139000 7.312000
10.369000 2.131000 7.754000
26.933000 2.346000 7.511000
-32.266000 2.006000 8.324000
-30.219000 2.286000 8.535000
-29.435000 2.086000 8.532000
-21.636000 2.377000 8.357000
10.564000 2.110000 8.591000
26.567000 2.278000 8.279000
-27.544000 2.229000 9.711000
-22.514000 2.328000 9.590000
10.771000 2.315000 9.569000
26.765000 2.173000 9.304000
-26.955000 2.258000 10.388000
-23.008000 2.259000 10.609000
10.639000 2.110000 10.591000
27.496000 2.045000 10.387000
-24.322000 2.108000 11.426000
-23.431000 2.087000 11.281000
10.472000 2.312000 11.353000
27.715000 2.085000 11.277000
10.743000 2.220000 12.420000
27.613000 2.218000 12.277000
11.158000 2.220000 13.306000
16.630000 2.377000 13.510000
18.627000 2.043000 13.577000
26.887000 2.383000 13.360000
11.705000 2.170000 14.236000
15.711000 2.401000 14.460000
19.520000 2.043000 14.608000
26.934000 2.341000 14.256000
19.904000 2.262000 15.562000
30.518000 2.175000 15.512000
19.940000 2.186000 16.657000
31.606000 2.035000 16.449000
19.940000 2.270000 17.650000
31.390000 2.195000 17.318000
19.585000 2.258000 18.692000
30.754000 2.396000 18.334000
19.169000 2.324000 19.672000
28.542000 2.383000 19.463000
19.145000 2.204000 20.327000
27.100000 2.277000 20.732000
19.758000 2.183000 21.244000
21.491000 2.341000 21.436000
25.349000 2.043000 21.510000
26.624000 2.310000 21.447000
8.362000 -21.848000 13.332000
8.382000 -21.645000 15.972000
9.255000 -21.861000 12.929000
9.172000 -21.716000 16.376000
10.456000 -21.835000 -15.785000
10.208000 -21.714000 -12.091000
10.330000 -21.810000 12.121000
10.251000 -21.719000 16.633000
11.325000 -21.690000 -15.872000
11.240000 -21.797000 -8.895000
11.225000 -21.938000 11.620000
11.225000 -21.790000 16.866000
12.065000 -21.790000 -15.592000
12.058000 -21.796000 -8.906000
12.228000 -22.051000 11.550000
12.225000 -21.790000 17.141000
13.104000 -21.746000 -14.740000
13.107000 -21.692000 -9.241000
13.272000 -21.829000 8.969000
13.143000 -21.726000 9.961000
13.073000 -21.767000 10.734000
13.225000 -21.790000 17.196000
14.493000 -21.803000 3.305000
14.171000 -21.724000 6.088000
14.200000 -22.023000 6.971000
14.225000 -21.790000 17.263000
15.225000 -21.790000 3.009000
15.125000 -21.890000 17.346000
16.005000 -21.848000 2.726000
16.038000 -21.780000 17.404000
17.155000 -21.728000 1.798000
17.121000 -21.919000 17.095000
18.416000 -21.906000 0.194000
18.222000 -21.940000 3.329000
18.472000 -21.791000 4.089000
18.112000 -21.907000 16.366000
19.119000 -21.834000 -0.228000
19.015000 -21.864000 3.152000
19.273000 -21.801000 4.150000
19.223000 -21.619000 16.977000
20.119000 -21.790000 -0.759000
20.446000 -21.682000 17.585000
21.011000 -21.760000 -0.682000
21.225000 -21.790000 17.707000
22.110000 -21.617000 0.077000
22.132000 -21.795000 9.156000
22.385000 -21.668000 12.605000
22.169000 -21.804000 17.693000
23.197000 -21.569000 1.037000
23.103000 -21.762000 2.972000
23.296000 -21.596000 5.001000
23.165000 -21.835000 8.064000
23.296000 -21.810000 12.975000
23.294000 -21.841000 17.230000
24.176000 -21.571000 6.117000
24.118000 -21.827000 7.058000
24.226000 -21.639000 13.209000
24.173000 -21.901000 16.156000
-40.677000 2.225000 -17.090000
-40.696000 2.436000 -14.307000
-39.742000 2.021000 -17.380000
-39.796000 2.290000 -14.025000
-38.752000 2.281000 -17.738000
-38.757000 2.447000 -13.105000
-38.802000 2.032000 -11.969000
-38.711000 2.247000 -8.223000
-37.775000 2.210000 -18.135000
-37.753000 2.211000 -5.402000
-37.800000 2.043000 -3.193000
-37.647000 2.442000 1.705000
-36.775000 2.210000 -18.302000
-36.908000 2.303000 2.075000
-35.704000 2.190000 -18.021000
-35.834000 2.310000 3.031000
-34.609000 2.314000 -17.869000
-34.709000 2.208000 -13.243000
-34.830000 2.218000 -10.700000
-34.945000 2.266000 3.215000
-33.761000 2.377000 -17.750000
-33.945000 2.018000 -14.099000
-33.701000 2.384000 -8.357000
-33.990000 2.114000 3.111000
-32.707000 2.181000 -6.961000
-32.820000 2.199000 4.090000
-32.771000 1.964000 4.786000
-32.751000 2.324000 8.014000
-31.826000 2.222000 -5.864000
-31.804000 2.418000 8.671000
-30.934000 2.417000 -5.390000
[...]
POINT_DATA 17960
SCALARS Potential double
LOOKUP_TABLE default
13.151869
5.783656
6.493736
6.459001
4.705525
6.542847
4.814632
8.654507
4.587008
9.813189
4.883259
7.551991
4.195173
6.462871
-1.252678
-2.821560
0.484674
-0.356615
0.589446
7.286731
0.433582
4.035682
0.561651
0.182284
0.375302
-0.285609
0.852469
-0.345990
1.732618
-0.623913
1.949359
-0.750658
3.186641
-0.864050
2.256413
-1.620715
1.147515
-3.713727
-0.184539
-5.777592
-1.785263
-5.125581
0.882289
-1.792586
0.707756
-0.462247
-0.676792
-2.336498
2.259220
-3.559692
-5.629289
-2.413082
-2.622708
-3.247260
-1.960678
-4.816291
10.252776
6.222336
1.309243
-5.872861
2.020895
-3.326701
4.531251
-5.956584
-7.495624
-6.897385
1.473243
-4.651800
5.857708
-4.307354
-3.164032
-1.028266
0.280248
-6.695741
6.242454
-2.768625
-1.521662
2.151186
2.235204
-7.261551
4.537529
-2.233964
-1.611420
3.666339
1.342318
-6.463695
3.806478
-3.808259
-1.210451
2.170049
2.721144
-2.181930
4.014729
-3.832350
-1.368154
1.623855
3.240950
-0.602819
3.713387
-4.612381
-1.728692
1.826227
3.412925
0.904646
3.732246
-5.302990
-1.108102
2.298399
3.162538
3.076070
5.972803
-3.077780
0.152597
0.081488
3.014102
7.005886
6.940272
-1.946070
4.464615
3.364075
2.349761
7.272113
3.586723
-1.251723
2.105048
8.369169
1.801075
-1.273297
-0.516496
6.289820
1.393487
6.224555
5.020535
5.165593
0.563066
2.972413
6.437693
1.886727
0.030462
3.063205
1.674301
5.018128
6.118785
-0.367907
-0.370317
5.328799
5.349988
-2.442897
-0.897957
-0.535620
-0.375987
6.121588
5.263582
-2.949961
-1.393380
-1.381545
-0.555129
7.123886
4.277971
-7.388710
-0.884456
9.100227
5.043165
-6.732924
-1.361317
0.809454
3.617423
2.034469
5.659762
-3.688537
-4.183866
-0.847095
12.547777
-3.339389
-2.887349
-2.134873
8.633838
-6.155027
-4.255616
-3.298701
6.517711
4.887180
3.484015
-6.979592
-4.337845
-2.695658
2.381092
-1.376596
2.239062
-0.886390
-3.758055
-5.743136
-5.394021
-2.241764
1.182473
-0.721412
-4.787331
-4.261466
-7.133089
-9.809248
-9.425381
-4.475279
-4.080112
-4.035666
-11.950566
-5.224248
-3.395547
-3.298790
-12.362074
-6.488507
-2.608940
-3.750895
-8.781958
-8.859338
-1.991597
-2.997319
-1.541878
-0.967114
-1.299773
-2.521546
-6.702204
1.003248
-0.511930
-2.537446
-9.287839
-1.762040
-7.970268
-0.193121
-7.553969
-0.925427
-6.554455
-1.436031
-9.208338
-1.934942
-12.143512
-4.581738
-13.029367
-4.510111
-13.480203
-13.955107
-6.313339
-5.499112
3.510300
0.742419
4.608415
-4.025030
16.444810
5.133084
-0.446474
-6.259337
9.231388
4.283725
-1.711128
-5.416781
5.614376
4.468292
-1.316203
-3.720603
6.413114
5.291694
1.382073
0.299956
-0.734907
-2.013571
0.327052
2.597545
2.097810
-2.037560
0.285549
-3.623861
0.444283
-4.005649
0.604616
-3.569944
-0.367788
0.240679
0.231641
-2.338343
-1.029797
0.527442
0.218789
-1.774959
-1.881979
-2.155595
-2.189563
-2.548152
-1.485559
-2.772085
-0.499577
-3.689669
3.220446
0.963434
-0.579548
-1.229906
4.430661
-4.092779
-0.666391
-0.789421
0.973769
-3.312872
3.051327
4.435180
2.197034
3.910224
1.173048
3.093730
4.428791
8.322166
1.418189
2.117120
0.614979
-1.144930
0.800150
-1.274375
-1.496546
-2.627494
-4.351176
-2.759358
-3.935531
-3.666809
-5.051932
-2.870705
-2.659076
-3.732447
-1.521722
-3.955340
-3.745440
-6.501122
-1.120405
-9.674786
-0.504175
-11.218469
-1.505674
0.989382
-0.029431
-9.301375
-1.325794
-11.917072
-2.376746
-11.743824
-3.810824
-10.285906
-6.069569
-9.082882
-8.356251
-8.250177
-7.606030
-8.046727
-3.870569
-1.123069
-3.665583
-5.009731
-2.566414
-0.876145
-3.617731
-3.990006
0.210785
-0.522329
2.517307
0.418884
2.287749
1.428857
1.916497
3.096879
1.850344
6.456670
1.952128
4.612190
1.159053
2.560413
1.838176
4.322075
1.964789
6.978627
8.263983
0.884595
2.357378
5.792190
2.067486
0.980921
1.654700
1.858105
0.196539
0.289363
-0.020979
2.238205
-0.523284
-0.955454
0.653038
1.777987
2.621176
3.413983
3.131743
4.803153
2.382991
2.574721
2.278883
0.716197
2.606192
2.074629
3.415471
3.764317
2.994322
5.743344
3.232868
6.102061
2.019162
5.626832
9.951826
5.987584
2.637747
5.231911
5.935091
2.087334
1.136226
4.438964
4.586654
2.309559
0.562458
1.699231
1.886206
1.620015
1.970970
0.540819
1.188552
-0.435126
0.867968
-1.105896
2.369519
-1.876118
6.614350
-4.677089
8.542717
-5.460991
6.286135
-1.161642
3.045504
-0.079956
0.257532
-0.138972
-1.593662
-0.647593
-1.971110
-4.683644
4.917989
-1.450265
-3.855376
-6.709579
9.415812
0.110707
-1.304299
-2.440739
9.299102
3.530051
-2.868594
-3.288731
6.711444
5.701283
-2.520599
-5.015524
-2.316104
-9.372394
-12.038098
-13.804947
-0.385644
-14.005313
-0.115995
-13.981724
-0.135405
-11.044961
-0.520019
-8.347769
-0.455401
-7.569820
-3.871349
-6.182092
-6.682995
-5.592721
-5.450398
-5.180030
-3.678444
1.298039
-2.751661
-5.157034
-4.764595
-6.693013
-1.462339
-6.062322
-0.428048
-4.135650
-0.201752
-2.965120
-0.637129
-1.754832
3.232240
1.204018
7.682267
-3.164165
11.629745
9.290078
8.545684
-4.682022
15.233480
9.633491
9.484261
-2.982088
10.884536
0.812630
10.640624
1.921323
7.975630
3.036879
12.589968
8.140519
6.155924
4.229058
7.673930
10.327317
2.664251
4.930367
-0.721056
-6.084398
-1.820457
5.473828
-3.445913
5.502988
-5.667504
4.426045
-4.057715
4.143813
-1.894061
3.832692
-2.211148
3.977630
-3.252051
-0.283420
-4.332916
-3.429660
-6.241679
-6.284483
-4.884046
-6.093086
-0.948078
-2.268149
6.502075
-0.512043
2.454706
0.072432
-6.149023
-5.227149
-3.941865
-0.417134
-1.618763
0.904252
0.412815
-5.369949
0.637446
-7.303822
0.633679
-4.171812
8.174575
6.635312
-0.212020
-3.389980
9.287085
5.550238
-2.578757
-4.055686
3.628362
3.619897
-4.760963
-7.065558
0.894422
1.608198
-4.531977
-8.192674
-0.476785
-0.899552
-1.091729
-3.822582
-3.059340
-2.292011
-2.666598
-1.381603
-4.375622
1.604167
0.772201
-0.937731
-4.717806
-0.553912
-0.242806
1.388290
-2.446018
-3.811989
1.341338
1.650752
3.469104
3.021723
4.824446
4.880117
4.703771
6.179877
5.621095
7.233851
2.069889
0.572936
7.849041
-2.928781
-1.552613
-0.519510
7.643172
15.671074
8.236894
-2.370441
-0.099724
-0.683574
6.968762
12.043794
7.496325
-2.517076
-0.353055
-0.621945
7.109909
8.562045
12.741530
-2.981529
-1.198715
0.102905
5.435793
7.424878
11.385279
-4.452969
-2.038957
0.256892
6.932432
-5.052055
-4.691367
-0.300086
-5.042426
-3.795600
-6.000984
-1.344253
-8.969199
-5.797261
-9.728251
-7.225581
-10.612311
-7.341437
-10.052027
-4.499928
-12.463961
0.144857
-14.486993
4.028298
-14.104525
-14.765774
-14.524318
3.616795
-11.979323
-14.610849
-13.837859
2.711287
-10.731528
-12.488880
-10.958005
1.714565
-11.703592
0.015222
-10.931610
-1.203625
-11.357949
3.605297
-9.781873
2.290214
-7.760038
-1.142049
-4.680507
-2.776452
-0.477283
-0.908100
-0.498017
-0.816329
7.304403
4.480624
1.520394
1.538640
-0.502732
-5.738537
-0.195836
-4.502236
1.728439
-2.756785
1.773681
-1.843286
1.491428
-0.210988
1.418629
5.077809
1.439303
3.406336
-9.929689
-9.056363
-8.523792
-6.237334
-13.571614
-12.987671
-5.300907
-2.685231
-14.290033
-7.883966
-4.660354
-1.697297
-12.522795
-4.814265
-0.671723
-0.855317
-3.338447
-2.298027
-11.329737
-1.921684
0.224233
-2.509970
0.504103
-3.380384
-9.082429
4.230795
5.734836
1.448657
-0.073795
-6.385474
2.179640
-7.159238
-7.819692
-0.748401
0.306876
-6.210435
3.956495
-0.260286
-2.440923
-5.480704
3.969933
0.225407
7.738388
-3.196515
-0.356412
0.472403
-0.238388
-1.298854
-0.779181
0.467768
-2.110651
-4.227505
-2.773527
-1.294871
-0.139124
-3.548229
-2.073536
-3.555293
-3.212494
-3.176693
-3.187984
0.066094
1.210722
-4.014889
-2.750367
-3.117924
0.238089
-3.023498
-0.693849
-3.095630
-1.109737
-2.243700
-3.369946
-5.766003
-2.991300
-0.592610
-5.012349
-2.949797
2.389467
-0.398480
-1.864788
-4.429860
-2.404916
-5.116207
-3.483515
-10.638328
8.464506
6.591523
6.911247
6.946865
6.356908
6.743954
6.385099
7.099289
6.101360
6.795414
4.949772
7.814450
4.436528
7.678917
3.587895
3.749952
0.483850
0.760701
1.108843
-0.448825
1.132399
1.934215
0.804856
0.286119
1.067422
-0.115616
1.854683
-0.344210
3.302968
-0.661311
6.719776
-0.546217
7.722640
-0.695157
4.966707
-1.154195
1.477644
-2.839538
-0.777882
-5.091967
-4.023490
-4.636643
-1.816750
-1.641496
2.087247
-0.302096
-0.998414
0.670052
-3.226481
-0.556546
-6.634058
-4.206930
-2.082441
-0.255012
-2.607538
-6.473448
1.629862
-4.371267
4.619302
-2.522688
4.024403
-3.345762
-2.194594
-7.065412
4.601956
-2.743930
4.425984
-2.284523
-2.290379
-2.399274
2.392794
-3.215907
3.985502
-2.204117
-5.385366
0.847000
-0.274225
-4.362904
0.385629
-2.487687
-3.924253
1.299240
-0.176673
-1.875624
0.715010
-1.566665
-1.111351
1.877058
2.163297
-1.133967
1.222257
-3.222987
-1.997322
1.710044
3.330116
-0.121186
2.510873
-2.119116
-2.626999
1.552890
3.129453
1.395927
5.187517
-1.788076
-2.815434
1.141384
2.885605
2.610725
7.085318
-1.251692
-1.391283
-0.688070
2.696417
5.154055
4.821208
-0.077001
-0.771067
2.400285
2.142375
10.770720
2.403682
0.405666
-0.905810
9.819671
1.621852
0.453272
-1.109606
5.466415
0.520494
3.617339
-0.414168
0.245883
4.450719
1.752607
-1.038389
5.067055
5.438417
0.124227
-0.188659
-0.747234
-0.812890
4.920910
2.912229
3.272458
3.732975
-0.735283
-0.818052
-0.733564
-0.657478
-1.848300
-1.095615
5.799233
5.279905
-1.412786
-1.275992
-1.247586
-0.614748
-1.451863
-1.096374
8.452006
4.229983
-7.070452
-0.766371
0.081711
1.348470
11.714549
4.838714
-5.755449
-1.233817
-0.942337
7.459673
4.900655
8.451744
10.829685
4.972580
-3.446379
-3.977168
-1.358693
5.165082
3.682220
9.176685
8.973628
13.485250
-2.179004
-5.021848
-2.343869
9.504500
5.193626
9.593945
-1.905526
-4.718069
-3.600054
4.328036
-0.110918
3.781677
-2.773548
-4.343235
-5.732811
4.032550
-1.891674
2.180193
5.300224
-2.444509
-3.059115
-4.695140
-5.672529
7.074442
-1.252953
-4.700433
-3.211880
-5.883099
-6.567499
3.282674
1.200366
-3.613899
-5.522077
-12.762627
-6.121955
2.257905
1.440165
-3.243702
-5.808443
-9.853456
-6.072546
-3.166734
-3.118480
-8.043050
-8.020142
-2.312682
-3.683830
-11.082153
-9.202503
-1.815374
-2.740077
-1.359261
-2.119502
-7.788796
-2.310298
0.212105
-2.715772
-11.407688
-4.310843
-10.004353
-1.180340
-10.999066
-0.746441
-10.719730
-1.245393
-10.527797
-2.049327
-13.263912
-2.597817
-14.289890
-3.633795
-8.068000
-4.553378
3.600516
-5.252143
10.437116
3.920711
-0.443732
-7.779770
8.021917
3.377777
-4.454911
-6.669397
5.906912
2.993739
-2.485216
-3.424478
7.610920
2.967654
3.620470
-0.970462
7.830153
6.158595
0.856605
-0.869771
0.659508
-2.089572
1.038847
-1.599389
1.191737
-1.451766
0.714839
-0.360328
0.239276
-0.247018
0.549888
-0.762800
1.065597
-3.973688
-0.170432
-3.806371
-2.747398
-6.226266
0.185160
0.138355
-0.464551
-1.004711
-1.296188
-6.634193
-0.467969
-0.614445
-1.103809
-5.753710
3.318030
4.067475
0.663953
1.612766
-0.222828
0.143681
0.273969
-0.377515
2.044836
3.655330
0.826322
3.044835
-0.418654
-0.793081
0.760178
-0.972610
-0.773901
-2.856410
-3.322531
-3.246121
-1.211984
-5.344094
-3.967937
-1.179148
-0.730033
-5.666865
-3.679082
-1.795623
0.835473
-8.878123
0.039167
-9.861400
-0.639395
-13.043340
-4.122176
-1.583549
-1.223970
-3.324292
-0.668377
-12.649114
-2.097385
-12.422228
-2.262826
-12.468024
-2.990144
-11.474870
-5.396241
-8.862659
-7.846857
-10.628196
-8.549953
-1.854104
-1.059381
-9.836893
-5.826881
-1.541047
-0.884794
-1.163794
-5.267586
-9.115376
-3.650152
-1.190419
-1.018503
-1.214879
-6.002101
-6.654097
-0.801076
-1.121440
0.796847
-0.167949
1.333488
0.526538
1.707345
2.546727
1.611277
9.980435
1.893501
1.960890
-0.228000
2.319621
0.352536
3.798817
8.573243
6.462286
1.537397
7.465509
11.170424
1.450661
2.162638
5.615833
6.930504
10.193099
8.947458
1.147751
0.549291
2.939647
9.477634
1.268417
-0.736116
2.697299
11.161655
0.240088
0.314537
1.136791
12.717224
9.461144
1.794866
1.657744
2.437605
4.227765
1.764669
3.712656
1.441344
0.960536
1.794591
0.486927
3.133782
2.873103
1.406155
3.318719
-0.410811
3.425711
-0.114314
5.511314
-0.041556
5.021407
8.498033
2.142374
-1.216931
4.000399
4.732121
2.343755
-0.795830
2.445320
0.837424
3.066404
5.150788
6.264201
6.103862
1.498190
4.789319
-0.407459
4.351555
-1.485442
6.995316
-4.100461
11.674468
-3.504452
-2.500646
-1.723150
8.240684
-3.314599
-3.750324
-1.677597
5.952774
-0.568393
2.518017
1.211815
0.634021
1.143863
-0.611086
-3.623848
3.722100
-0.917365
-1.359166
-3.326752
5.768246
0.823522
-0.314995
-2.823203
7.187498
1.811690
-1.628685
-1.554827
8.280618
2.597359
-1.653325
-4.637893
-1.535937
-10.881328
-0.484802
-11.073715
-8.292905
-14.841996
-0.208205
-14.511005
-0.166694
-12.130913
-0.544084
-9.206246
-0.660695
-7.312668
-3.235545
-6.410842
-6.116914
-3.978822
-3.322702
-6.023637
-7.313055
-3.316220
-4.833821
-4.548025
-3.439309
-3.293441
-1.659766
-2.668594
-0.975722
-2.557204
5.371174
-3.827734
9.350942
10.926478
11.736605
0.767983
8.446155
2.432683
13.140087
7.533300
8.466567
3.490944
7.798566
7.136134
7.801421
-2.516842
-2.489714
4.153408
5.129988
10.623673
4.744708
-4.415456
-1.589036
4.752420
3.951749
13.602791
0.224581
-6.171976
-1.996904
5.255761
-3.341154
4.260858
-5.118207
2.980823
-2.172435
2.770502
-1.459188
3.113844
-1.996355
3.199074
-3.297387
1.408508
-3.942359
-3.106070
-9.080139
-4.573627
-8.682696
-3.391241
-7.786203
-0.041635
5.137588
3.286818
5.786558
4.579099
5.341431
1.248280
-4.794532
-4.991717
-4.154190
-4.211931
-2.351366
-1.549340
-0.175718
-3.129430
0.826588
-7.636772
1.035336
-8.327798
1.124002
-7.864290
8.263875
11.572725
0.775590
-5.601104
7.638380
5.480022
-0.777643
-6.009384
4.256509
2.745058
-1.998634
-7.409381
2.424690
1.077234
0.215592
-9.133465
0.891004
-0.980434
-0.329506
-6.898423
-0.164915
-2.691760
0.576618
-4.865564
-1.857960
0.193142
2.728167
-4.744895
-2.739170
-4.814343
-4.395981
-5.630241
-0.064794
-4.333441
0.896837
-3.431697
2.120488
3.016929
2.942668
-1.010092
3.345683
4.493462
3.213426
0.713326
3.126771
5.754470
3.369782
1.363380
6.687070
-2.222497
-1.665644
-1.009985
4.450226
13.942145
7.823349
-2.041350
-1.415048
-0.889734
5.682987
10.826650
9.080032
-2.280923
-1.425738
-0.538978
6.861929
0.044482
10.689570
7.462321
9.787361
-3.082118
-2.451294
0.194448
6.268282
-4.566861
-2.197330
-0.102430
5.509364
2.745711
-2.508352
-7.317254
-6.852493
-3.712818
-2.578921
-0.206023
-1.913865
-7.001392
-0.744979
-0.535827
-5.355250
-7.793051
-6.036731
-0.982372
-6.533442
2.263008
-15.289394
-16.890516
-6.619900
2.491899
-14.937816
-17.218808
-12.519266
1.824747
-14.732318
-15.639246
-13.815651
1.072110
-14.337729
-15.480858
-11.958298
-10.811487
-9.009270
-0.131473
-12.299380
-12.454260
-10.190948
-1.127349
-9.991413
-0.541378
-7.825962
-0.635985
-6.993942
-6.198210
-6.707318
-1.335815
-5.139103
-4.673709
-1.966936
-2.421602
-1.005774
-6.764138
-0.643451
-6.393426
-0.064895
-3.715587
0.546349
-2.465185
1.128408
0.431065
-3.845453
-3.198771
-9.803032
-4.827831
-1.118198
-1.629757
-2.633506
-1.969138
-1.830764
-2.102687
-8.742829
-2.395720
-3.267885
-2.150073
-0.801947
-7.187573
-6.282119
-0.239598
-2.414724
-4.782120
1.022651
0.202205
-0.227097
-6.229648
2.525938
-0.072251
-1.482359
-5.153740
1.538941
0.126584
2.800359
-2.742258
0.838692
0.219298
-0.032729
-1.377160
-1.818917
-0.073097
-0.327995
-0.905646
-0.161394
-3.256443
-3.611050
-3.644908
-5.743582
-4.111470
-5.226822
-5.334660
-5.921610
-4.629465
-0.751229
-5.560268
-1.628286
-3.034053
-2.209259
-1.853332
-3.407416
-0.953312
-4.358132
-2.353907
-5.184085
-0.449814
-1.281935
-3.603017
-2.361135
-4.241620
-6.171891
-7.019517
12.195415
9.029613
9.932523
9.246634
8.126659
7.068830
6.572061
6.848855
5.350071
8.547646
5.042862
4.272228
4.786321
9.018967
3.937636
10.414271
8.248900
5.269306
3.516157
7.499643
0.144878
3.876455
1.232649
2.927509
2.331139
2.469317
0.026561
0.523214
0.926218
2.183081
1.494019
0.203501
1.268107
-0.999873
0.931191
-1.562680
0.878115
-1.223619
1.893229
-0.915242
3.982497
-0.061126
6.155657
-0.038731
7.336761
0.284144
7.193532
-0.980545
0.858447
-3.279510
-3.075570
-5.447819
-3.874872
-4.250335
-2.039528
-2.846350
-0.525511
-1.346375
-1.946295
6.810957
-3.757088
0.576605
-7.123441
2.095703
-0.822956
-5.331326
-1.073554
0.823876
-5.114139
-7.005613
0.603538
0.302863
-1.321191
-1.129618
6.764630
8.681643
5.297730
-0.567642
2.958856
-0.988840
-1.035829
-7.947054
6.702313
-1.253704
4.043596
-3.802972
6.258598
-1.877564
2.677747
0.483529
-1.625185
0.981794
4.711156
-2.057900
-2.024019
0.681363
-0.587046
1.872210
3.651499
-1.531513
-2.274956
0.779742
-3.138080
1.424254
1.707835
-1.568541
-1.900027
0.002338
-3.218374
1.259131
2.599357
-0.334483
-0.500514
0.049599
-4.930443
1.151595
2.419727
0.906175
1.583090
0.136406
-5.730400
-0.537575
1.885239
1.584345
4.667040
0.898138
-4.534479
2.080987
2.059189
2.941699
2.225439
1.327237
-5.262680
5.456589
1.656315
1.196671
-3.528773
5.238313
0.428259
-0.244268
-2.157844
4.533133
-0.197457
2.417466
-0.970568
1.291909
-2.129805
0.519415
-0.676022
-0.766570
-1.640530
-0.300298
-0.970490
-0.828431
-0.794659
-1.705188
-1.035574
5.112433
3.557339
2.066394
2.623437
-0.999497
-1.668718
-1.222361
-0.454399
-1.332506
-1.011777
9.389491
0.852721
-0.361044
4.870913
-1.510082
-2.245215
-5.438998
-0.342471
-0.936986
-0.087177
-1.202102
0.193867
14.874430
4.992207
-5.179757
-0.524149
-1.060612
2.159256
10.255913
4.612995
-3.091789
-1.298976
-1.687676
1.538111
8.291693
10.148352
-1.743684
-2.138381
-2.233642
2.272871
4.392290
8.958832
-1.593242
-2.117412
-3.098270
2.507960
0.505359
4.664900
6.801047
-0.432005
-1.981844
-2.126777
-4.857573
5.432267
-1.255685
1.526448
2.418983
-2.991166
-1.550275
-3.068273
-6.856178
8.379189
0.039986
-2.492307
-2.045241
-7.386840
-6.689540
3.588783
1.481596
-3.072036
-2.940043
-11.006891
-15.698202
-13.188379
-4.531685
2.012424
1.957902
-3.782383
-4.470124
-12.302778
-4.495127
-3.742264
-4.782428
-9.379787
-5.497584
-2.720932
-5.482622
-8.911119
-5.831925
-2.379439
-5.636287
-1.847242
-4.480674
-10.446663
-5.322684
0.714163
-3.274899
-10.601884
-5.514192
3.162872
-2.898046
-8.134955
-5.544361
6.720195
-1.759882
-9.797024
-3.829363
-13.262475
-2.332196
-14.632578
-1.258295
-15.201103
0.821323
-12.567298
-2.851144
-7.462700
-4.919129
-0.507846
-4.855001
11.404870
3.565260
-4.289019
-7.297400
10.155852
2.773504
-1.790226
-6.478838
11.294915
1.543834
2.863010
-3.372281
8.666061
0.246692
8.714200
-0.073086
6.901302
2.415216
1.278197
0.328004
10.735804
2.550486
1.167324
-1.139689
1.546766
-0.584092
6.267645
6.299566
1.265839
-0.235480
4.680379
4.608734
0.486357
1.946536
-0.399670
1.721556
1.326032
0.861727
2.618967
-3.841187
1.502870
-5.807485
-3.683847
-6.787410
-1.640655
-0.978226
-1.368500
-0.376538
-2.476781
-7.310832
0.123002
-0.102949
0.371850
-2.760546
3.008855
3.178206
1.842815
1.288330
-0.468043
-0.831979
-1.494974
-1.830542
-0.236803
-2.675377
-2.042838
2.576830
0.951475
-0.825040
-1.946744
-0.283434
-2.454575
-2.719225
0.886776
-3.337240
-0.216075
-3.673682
-2.034958
-9.261789
-1.973640
0.040245
0.889480
-9.640536
-0.220127
-0.986534
1.330457
-8.846517
-1.769940
-2.579202
0.134092
-12.575152
-3.810554
-3.859140
-1.346118
-14.850725
-3.539503
-6.027708
-2.696902
-15.892586
-1.848561
-5.605498
-3.875861
-12.120061
-1.096014
-12.185240
-1.324446
-6.474381
-2.322581
-8.484729
-5.480580
-7.874245
-7.584463
-1.691547
-0.958952
-7.443437
-5.826611
-1.280961
-0.153308
-1.621035
-6.238942
-6.288041
-2.768707
-1.087947
-1.115703
-1.225962
-0.809756
-1.757790
0.821959
-1.012761
1.238967
-0.916420
1.397284
-0.445866
1.229257
0.591081
0.153411
0.083797
-1.196928
1.404573
0.283758
4.797057
0.680071
1.199886
1.294632
1.105422
1.206668
1.308216
0.201109
1.601647
0.580537
2.113235
15.960338
8.898862
1.414146
2.512664
1.694361
4.192508
2.078718
2.356945
1.899059
0.038040
1.672744
-0.926281
2.088293
0.847197
0.327667
2.526367
-1.553110
3.221166
-1.830907
4.114268
-1.093391
4.873115
8.447602
1.741775
-0.849798
4.649870
5.084551
1.788323
-0.491929
3.685041
1.607600
6.881671
3.287171
3.662309
4.362485
0.912475
5.803338
-0.273841
5.953835
-2.308148
8.024916
-3.540203
9.677595
-0.366898
-2.898601
-3.050600
12.599358
-3.110054
-3.714226
-2.180481
8.717997
-0.707134
3.471021
5.989035
1.446388
4.386984
0.257161
-1.995349
2.029182
1.056393
3.222396
-3.766143
4.255020
1.232214
-1.390063
-3.488524
4.417082
1.598191