# vtk DataFile Version 1.0
vtk file 3j3q_1:DX:4F_model1
ASCII
DATASET POLYDATA

POINTS 18432 double
-10.196000 -19.228000 4.483000
-7.800000 -19.275000 4.535000
-16.788000 -19.195000 5.706000
-13.165000 -19.384000 5.541000
-11.791000 -19.203000 5.423000
-6.360000 -19.555000 5.616000
-17.283000 -19.260000 6.417000
-6.317000 -19.391000 6.409000
-18.262000 -19.111000 7.599000
-6.432000 -19.332000 7.260000
-0.829000 -19.243000 7.718000
1.034000 -19.379000 7.504000
-18.664000 -19.300000 8.566000
-6.976000 -19.353000 8.510000
-1.204000 -19.405000 8.609000
3.977000 -19.377000 8.542000
-22.610000 -19.310000 9.708000
-21.089000 -19.529000 9.510000
-19.186000 -19.263000 9.416000
-6.955000 -19.453000 9.551000
-1.412000 -19.080000 9.533000
4.735000 -19.413000 9.642000
-23.152000 -19.427000 10.350000
-5.137000 -19.189000 10.693000
-1.881000 -19.323000 10.625000
4.710000 -19.155000 10.636000
-24.148000 -19.267000 11.473000
-4.012000 -19.366000 11.447000
-1.357000 -19.084000 11.626000
4.160000 -19.322000 11.629000
-24.740000 -19.495000 12.594000
-3.991000 -19.158000 12.474000
-1.982000 -19.278000 12.632000
3.269000 -19.161000 12.574000
-24.324000 -19.204000 13.581000
0.017000 -19.311000 13.627000
2.159000 -19.416000 13.578000
2.892000 -19.262000 13.280000
-23.854000 -19.276000 14.384000
-0.352000 -19.356000 14.409000
-22.318000 -19.313000 15.734000
-0.171000 -19.518000 15.389000
-21.760000 -19.244000 16.398000
-0.713000 -19.150000 16.578000
-18.844000 -19.419000 17.300000
-1.756000 -19.302000 17.690000
-17.936000 -19.487000 18.569000
-2.593000 -19.443000 18.749000
3.019000 -19.240000 18.598000
4.954000 -19.189000 18.566000
-16.917000 -19.330000 19.615000
-2.598000 -19.485000 19.485000
2.198000 -19.305000 19.551000
7.147000 -19.475000 19.443000
-16.025000 -19.317000 20.631000
-1.928000 -19.473000 20.635000
1.123000 -19.306000 20.608000
7.111000 -19.342000 20.509000
-15.079000 -19.335000 21.471000
-2.031000 -19.347000 21.599000
0.784000 -19.331000 21.581000
6.733000 -19.297000 21.366000
-13.258000 -19.315000 22.678000
-2.909000 -19.217000 22.674000
1.139000 -19.472000 22.617000
5.925000 -19.260000 22.433000
-13.004000 -19.355000 23.552000
-4.363000 -19.303000 23.434000
2.731000 -19.246000 23.672000
3.990000 -19.231000 23.524000
-12.741000 -19.325000 24.440000
-5.248000 -19.137000 24.462000
-12.020000 -19.467000 25.539000
-6.000000 -19.260000 25.509000
10.871000 4.666000 -32.372000
14.735000 4.722000 -32.326000
10.725000 4.689000 -31.419000
15.897000 4.723000 -31.387000
10.768000 4.695000 -30.491000
17.066000 4.646000 -30.559000
10.657000 4.824000 -29.620000
17.739000 4.470000 -29.532000
4.265000 4.699000 -28.350000
7.031000 4.528000 -28.511000
9.891000 4.917000 -28.462000
17.965000 4.705000 -28.431000
3.980000 4.695000 -27.491000
19.224000 4.448000 -27.492000
3.807000 4.747000 -26.483000
20.274000 4.774000 -26.659000
3.207000 4.878000 -25.495000
21.513000 4.447000 -25.354000
-8.289000 4.861000 -24.543000
-4.118000 4.486000 -24.476000
2.906000 4.813000 -24.670000
21.511000 4.604000 -24.682000
-8.915000 4.865000 -23.418000
-2.126000 4.461000 -23.505000
-0.113000 4.670000 -23.420000
1.021000 4.678000 -23.259000
3.224000 4.703000 -23.737000
21.233000 4.783000 -23.650000
-9.719000 4.599000 -22.271000
1.076000 4.674000 -22.405000
4.042000 4.628000 -22.440000
20.967000 4.780000 -22.595000
-9.723000 4.496000 -21.364000
0.274000 4.484000 -21.358000
4.487000 4.723000 -21.455000
16.027000 4.695000 -21.388000
19.134000 4.682000 -21.591000
19.898000 4.934000 -21.518000
-8.867000 4.599000 -20.408000
0.337000 4.602000 -20.391000
4.125000 4.695000 -20.581000
15.721000 4.795000 -20.591000
-8.326000 4.910000 -19.493000
0.135000 4.570000 -19.526000
1.080000 4.742000 -19.555000
15.551000 4.740000 -19.710000
-8.831000 4.781000 -18.352000
14.991000 4.873000 -18.577000
-9.291000 4.920000 -17.471000
0.833000 4.806000 -17.401000
1.857000 4.770000 -17.412000
14.136000 4.695000 -17.461000
-9.993000 4.692000 -16.374000
-0.249000 4.720000 -16.475000
3.825000 4.638000 -16.528000
10.154000 4.743000 -16.419000
-10.971000 4.649000 -15.387000
-0.601000 4.843000 -15.314000
4.228000 4.666000 -15.562000
9.229000 4.695000 -15.397000
-11.723000 4.619000 -14.531000
-0.399000 4.485000 -14.593000
3.985000 4.758000 -14.625000
8.898000 4.766000 -14.513000
-13.820000 4.732000 -13.414000
-0.137000 4.551000 -13.733000
1.903000 4.916000 -13.490000
7.797000 4.780000 -13.525000
18.096000 4.907000 -13.590000
19.889000 4.718000 -13.323000
-14.899000 4.707000 -12.434000
7.025000 4.847000 -12.635000
17.699000 4.755000 -12.697000
20.760000 4.727000 -12.257000
-15.023000 4.795000 -11.591000
6.879000 4.837000 -11.543000
17.892000 4.613000 -11.700000
20.846000 4.733000 -11.452000
-15.111000 4.716000 -10.562000
10.926000 4.493000 -10.465000
-18.731000 4.584000 -9.258000
-15.977000 4.717000 -9.435000
-15.036000 4.795000 -9.510000
12.686000 4.609000 -9.289000
-18.812000 4.545000 -8.339000
13.345000 4.593000 -8.487000
-18.116000 4.703000 -7.326000
-15.169000 4.685000 -7.627000
-13.308000 4.828000 -7.429000
13.575000 4.847000 -7.513000
-17.187000 4.718000 -6.483000
-16.176000 4.671000 -6.540000
-13.258000 4.810000 -6.491000
12.839000 4.878000 -6.493000
-13.367000 4.916000 -5.561000
12.077000 4.882000 -5.412000
-14.026000 4.894000 -4.517000
-7.753000 4.774000 -4.435000
-7.001000 4.574000 -4.477000
11.211000 4.638000 -4.339000
-16.766000 4.622000 -3.378000
-9.227000 4.636000 -3.474000
-6.066000 4.528000 -3.452000
11.264000 4.659000 -3.446000
-17.714000 4.902000 -2.341000
-11.180000 4.801000 -2.524000
-6.105000 4.695000 -2.491000
11.562000 4.645000 -2.328000
-17.876000 4.646000 -1.591000
-11.797000 4.864000 -1.619000
-6.149000 4.695000 -1.491000
11.658000 4.749000 -1.468000
-17.622000 4.721000 -0.738000
-11.772000 4.812000 -0.718000
-6.191000 4.766000 -0.496000
5.156000 4.642000 -0.324000
6.898000 4.615000 -0.381000
11.820000 4.595000 -0.391000
-15.424000 4.594000 0.753000
-7.868000 4.454000 0.466000
-6.941000 4.784000 0.470000
4.265000 4.721000 0.758000
7.999000 4.486000 0.505000
11.672000 4.718000 0.467000
-15.065000 4.819000 1.572000
3.836000 4.811000 1.634000
8.947000 4.485000 1.668000
11.581000 4.635000 1.327000
-15.224000 4.695000 2.584000
3.321000 4.588000 2.717000
-15.672000 4.884000 3.499000
3.336000 4.584000 3.676000
-15.753000 4.818000 4.289000
3.299000 4.667000 4.609000
-15.157000 4.522000 5.407000
2.906000 4.655000 5.447000
-13.890000 4.445000 6.612000
-0.715000 4.627000 6.642000
-12.992000 4.553000 7.604000
-1.717000 4.786000 7.750000
-12.646000 4.625000 8.609000
-2.318000 4.695000 8.571000
-12.617000 4.469000 9.382000
-2.821000 4.796000 9.436000
-12.180000 4.518000 10.351000
-2.315000 4.496000 10.409000
-6.220000 4.690000 11.676000
-1.858000 4.598000 11.250000
-4.797000 4.650000 12.593000
-0.037000 4.511000 12.377000
-3.911000 4.655000 13.580000
0.155000 4.558000 13.409000
-3.088000 4.684000 14.607000
-0.237000 4.696000 14.330000
22.316000 28.695000 -11.351000
26.195000 28.599000 -11.450000
22.009000 28.795000 -10.591000
26.391000 28.587000 -10.469000
21.923000 28.589000 -9.521000
26.597000 28.678000 -9.331000
22.023000 28.897000 -8.458000
26.696000 28.903000 -8.546000
21.600000 28.683000 -7.491000
26.173000 28.623000 -7.467000
21.611000 28.921000 -6.430000
26.074000 28.695000 -6.491000
21.415000 28.542000 -5.359000
26.084000 28.695000 -5.491000
21.323000 28.625000 -4.324000
25.921000 28.727000 -4.527000
21.024000 28.621000 -3.324000
25.736000 28.582000 -3.491000
21.023000 28.601000 -2.324000
25.664000 28.674000 -2.419000
21.361000 28.522000 -1.551000
25.774000 28.695000 -1.491000
21.665000 28.695000 -0.624000
25.568000 28.773000 -0.732000
22.255000 28.649000 0.262000
23.639000 28.831000 0.446000
-24.477000 -19.323000 11.840000
-24.486000 -19.170000 13.141000
-23.565000 -19.241000 10.948000
-23.555000 -19.305000 14.709000
-22.354000 -19.547000 9.480000
-22.746000 -19.205000 15.332000
-21.686000 -19.371000 9.421000
-21.381000 -19.098000 16.585000
-20.492000 -19.217000 9.805000
-20.623000 -19.329000 16.640000
-19.707000 -19.430000 9.653000
-19.667000 -19.225000 16.693000
-18.562000 -19.433000 7.889000
-18.429000 -19.139000 17.842000
-17.700000 -19.287000 6.851000
-17.387000 -19.098000 18.958000
-16.412000 -19.323000 5.140000
-16.422000 -19.253000 20.151000
-15.523000 -19.397000 4.681000
-15.529000 -19.302000 21.025000
-14.523000 -19.376000 4.844000
-14.457000 -19.261000 21.784000
-13.580000 -19.314000 5.303000
-13.626000 -19.256000 22.207000
-12.439000 -19.510000 5.673000
-12.493000 -19.334000 24.989000
-11.317000 -19.346000 5.195000
-11.291000 -19.206000 25.873000
-10.548000 -19.428000 4.751000
-10.357000 -19.228000 26.233000
-9.541000 -19.234000 4.193000
-9.373000 -19.363000 26.210000
-8.521000 -19.377000 4.108000
-8.523000 -19.305000 26.107000
-7.398000 -19.309000 4.900000
-7.764000 -19.322000 26.185000
-6.723000 -19.346000 5.360000
-6.603000 -19.261000 7.595000
-6.382000 -19.279000 9.981000
-6.627000 -19.284000 26.095000
-5.593000 -19.302000 10.326000
-5.664000 -19.494000 24.844000
-4.547000 -19.509000 10.897000
-4.604000 -19.553000 23.743000
-3.475000 -19.233000 12.913000
-3.642000 -19.377000 22.946000
-2.716000 -19.245000 12.955000
-2.328000 -19.550000 18.230000
-2.358000 -19.365000 19.861000
-2.553000 -19.545000 22.237000
-1.680000 -19.530000 9.933000
-1.540000 -19.168000 11.154000
-1.648000 -19.314000 12.179000
-1.343000 -19.482000 17.337000
-0.434000 -19.316000 7.371000
-0.393000 -19.442000 16.270000
0.411000 -19.283000 7.299000
0.591000 -19.188000 13.236000
1.411000 -19.305000 7.570000
1.624000 -19.193000 13.204000
1.460000 -19.256000 20.255000
1.603000 -19.167000 22.963000
2.441000 -19.265000 7.594000
2.584000 -19.435000 13.673000
2.583000 -19.294000 19.089000
2.407000 -19.112000 23.394000
3.452000 -19.205000 8.039000
3.636000 -19.269000 12.210000
3.425000 -19.391000 18.217000
3.511000 -19.330000 24.026000
4.424000 -19.257000 9.080000
4.492000 -19.488000 11.083000
4.268000 -19.319000 18.179000
4.593000 -19.468000 23.040000
5.538000 -19.204000 18.674000
[...]
POINT_DATA 18432
SCALARS Potential double
LOOKUP_TABLE default
-0.496445
-1.135256
-0.119112
0.852206
1.453851
-1.387791
1.186855
-1.586200
2.915967
-1.081086
-1.134169
-0.084220
3.997098
-0.661241
-1.822791
0.129124
3.702554
3.888621
3.866009
-1.789979
-1.943909
-0.250332
3.248210
-1.707618
-2.250330
-0.573176
3.551377
-2.739254
-2.148415
-0.791596
4.539103
-3.351857
-2.450454
-2.908733
4.234769
-4.989358
-7.191457
-5.222325
3.828277
-5.135464
0.583077
-5.710146
-0.195498
-5.814339
-1.092807
-5.268721
-0.450444
-4.989192
-5.470739
-6.906889
-0.467871
-5.065299
-3.753249
-7.293173
-1.226149
-5.705433
-2.421140
-6.872492
-3.000147
-4.403055
-2.555285
-7.174769
-1.820891
-4.823743
-2.520587
-7.338648
0.690456
-2.116810
-4.034945
-6.331697
3.650516
-1.817545
6.718917
-1.464770
0.725037
-1.499378
1.144676
-2.743984
1.424411
-6.953394
1.615173
-7.766848
2.096202
-0.038744
1.982799
-5.813967
-0.044110
-5.728559
1.763857
-5.880497
2.467137
-6.846011
2.958862
2.533358
2.485902
-5.591484
3.206117
1.197335
-1.362239
-0.590138
3.158285
-4.458897
3.759518
0.957998
4.976014
0.715493
4.033067
5.342145
3.043467
2.147151
-0.673860
1.316435
3.447025
9.579515
6.676774
1.213298
2.656721
9.320090
7.851583
0.113170
2.406950
-0.964660
3.003298
6.828587
6.913332
-2.154806
2.498583
4.190921
7.780050
-2.528859
2.694091
2.419757
7.560969
-2.500334
2.752926
0.930503
6.628782
-3.029827
1.987130
-1.113803
3.598103
-2.196590
-3.680060
-2.893069
0.275506
-1.577756
-2.749309
-1.991455
-0.934635
-1.336435
-2.659828
-2.016177
-2.093806
-8.030327
-8.874760
-4.490785
-2.640045
-3.868382
-9.674053
-3.018089
-8.452674
-3.118537
-2.307673
-2.966607
-7.714911
-7.116510
-2.828659
-2.132986
-3.407315
-2.017196
-4.781426
1.994160
1.736297
-1.092369
-5.748943
2.594784
2.173725
-0.389401
-1.332201
2.192650
2.026614
-0.482747
-0.434779
1.816770
1.729719
-1.020307
0.223613
1.281767
1.548868
1.292146
1.597947
-0.438807
-0.559290
0.997066
1.171726
0.707139
0.955042
0.556702
-0.436642
0.479414
0.454598
2.071396
-0.990326
0.896955
-0.536223
2.039342
-1.261055
2.188679
-3.060897
2.022669
-4.778833
1.897515
-4.329486
1.399440
-6.463283
2.218549
-8.662962
2.139822
-10.271167
4.179766
-3.302822
6.436688
-2.655881
3.753073
-2.656413
3.397622
-2.327353
4.927540
1.885440
-0.715636
2.048614
-0.545554
1.937780
-0.902568
1.840016
-1.021182
1.006327
-1.140590
1.170215
-1.196152
1.811901
-2.306140
4.197415
-3.635627
3.816082
-3.598704
2.533279
-1.694131
1.124607
-0.957606
0.326203
-0.530843
-0.187272
-0.184374
4.119172
3.959182
3.479871
5.356545
3.667350
2.895948
3.901598
-0.990800
4.294226
-2.079092
3.866451
-1.781761
3.885928
-1.777854
1.913431
-1.978373
-0.921714
-0.791327
-2.308724
-2.088041
-2.142946
-4.133890
-0.241469
-3.372454
2.054571
5.319782
1.080946
8.084612
0.386114
10.230359
-0.724161
8.069515
-0.613404
5.296785
-1.286704
2.881057
-1.955977
-0.912516
-2.292510
-0.552371
-2.571775
-0.618830
-2.447865
-1.529676
-3.643296
-3.234968
-3.517832
-5.467250
-5.478736
-4.613447
-2.144429
-1.859961
-1.910965
-5.902123
-0.896694
-5.269435
-0.365809
-5.178389
0.060265
-5.379008
-3.060118
-2.919062
0.262908
-7.120671
-4.073297
-4.222855
0.268408
-2.011900
-6.475192
-6.580550
-0.082506
-0.005980
-7.326477
-5.971836
-6.387436
-7.009843
-7.303469
-6.897425
-8.605056
-9.256917
-8.136077
-8.924118
-3.108550
0.386987
-5.685786
-9.275026
-6.257095
0.026435
-2.560818
-3.787350
-6.369093
-0.477616
-0.942064
-2.179942
1.459468
-2.817261
-6.385724
-4.808826
2.525349
-2.239969
-4.414001
-5.041303
2.900352
-10.179881
2.770141
1.943784
1.487084
-10.572781
2.485419
2.328407
2.226692
-9.289304
3.924447
3.788134
2.556788
2.519210
1.963902
-7.185006
3.755509
3.080939
2.027017
2.241588
1.877260
-5.703092
2.790354
1.740164
1.044682
-5.105498
2.930250
2.311606
1.274209
-3.542504
2.657515
-2.458708
2.594231
-2.416425
1.657261
-2.030507
1.326028
2.038474
3.224534
-1.951652
0.206629
1.200706
8.636020
0.331227
-0.603338
3.052267
1.566741
1.979399
9.381854
4.279809
-1.845428
2.456396
7.072200
4.884829
-0.370772
2.130871
7.138359
7.177723
1.968210
2.369644
7.775571
7.878066
5.310836
1.963414
2.544755
4.081814
7.629710
7.559564
6.246316
0.674531
7.062972
5.032284
5.342774
1.033203
8.860858
1.822798
1.948117
1.915775
-0.139461
-2.235164
0.124290
1.199796
1.002906
-3.222634
-3.997009
0.423371
1.985957
-2.822911
-9.006045
4.347569
1.809088
-2.572039
-8.796368
9.998298
-0.028739
-2.506893
-5.138115
-1.545100
-0.277075
3.474946
-0.524734
-2.567449
-3.928628
-2.279351
-0.813774
-2.546410
-3.365552
-2.543530
-1.002052
-1.505702
-2.127168
-0.532973
-4.494909
2.581345
-7.931315
1.062215
-5.264526
-1.097483
-3.728290
-2.576186
-6.046275
-0.049921
-3.667120
-2.434441
-5.398972
4.518443
-2.209824
-2.344576
-6.305310
-5.645853
1.058881
0.795000
1.270529
-0.343886
0.792423
-0.162644
0.168599
0.049757
-0.377075
-0.167178
-0.553289
-1.360939
2.535828
3.779360
-0.402189
4.106509
-0.053890
3.572283
0.876308
2.637645
2.479049
2.733017
2.545397
-0.479756
3.451127
-0.989488
3.567467
-0.897687
4.390431
-0.571023
3.126792
-0.604690
1.479160
-0.527841
0.947306
-0.535231
6.986063
-0.300010
7.838025
-2.797807
7.098246
-6.408835
-0.358342
1.029919
7.213947
-5.245400
-0.542973
2.102835
6.231099
-2.504894
-0.793527
2.600222
6.064572
3.708320
4.009122
5.797374
1.943980
0.672204
0.713962
5.047196
3.357332
-0.780598
-3.318576
-1.239408
-5.204345
-2.473291
-4.762111
-2.019523
-2.383376
-1.782379
-1.984183
-0.692928
-2.446983
-0.982058
-6.968653
-4.746475
-2.528752
-2.559741
-1.054648
-2.114737
-0.690653
-1.015527
-0.278973
-1.400628
-2.740551
-6.725270
-6.156266
-5.910797
-5.454468
-6.431693
-3.297169
-3.648243
-3.865598
-1.007740
-4.034653
4.024573
-3.190197
1.702729
-1.735523
-0.283066
-1.710712
-1.403769
2.980952
2.484508
0.770394
2.804087
-0.435425
3.307396
0.873100
2.936997
2.230543
2.589014
3.429190
-1.983209
1.257216
2.310544
3.798065
-2.926023
2.136111
-1.278164
5.968916
7.404037
3.559915
2.028776
2.544081
-7.156439
6.119593
12.041790
5.445331
9.954995
2.653849
-3.894285
-3.060519
-3.640093
4.587274
4.279797
0.637451
-3.670361
-4.451568
-3.775641
5.429800
4.542060
0.346932
-3.903595
-4.305966
-2.249945
3.352345
6.179339
2.147292
-4.514940
-2.554270
-0.198866
5.938649
2.973879
9.115247
0.604642
-1.125836
-0.001302
5.458353
5.448717
-1.268289
-0.263032
4.663978
4.877515
-1.154514
-0.838384
-2.063514
-3.658575
5.005773
-2.805345
-8.082119
4.582095
-0.316786
-4.276097
6.120982
-2.384153
-9.705797
0.314352
1.708750
4.093537
1.963762
-5.237016
6.608187
-1.285308
3.641204
-6.657520
2.443082
-2.127076
5.579854
-8.397021
-10.849013
-13.146421
1.630534
-2.795908
6.897508
-6.986872
-8.369846
-13.931984
1.145414
-2.116450
8.419201
0.309738
-2.448829
-6.589067
-9.930380
-11.053144
0.507222
-1.159822
7.238113
1.196937
-2.400781
-6.941507
-0.403939
-0.446453
6.176671
8.585710
-1.552948
-7.669357
6.477720
8.325233
-1.739819
-11.844541
-2.213605
-9.448208
-2.002358
3.778195
2.809319
-9.247703
-4.822600
-4.042796
0.919125
-7.835617
-10.702269
-6.944741
0.110496
-6.935109
-11.196768
-8.668504
-2.531579
-5.254916
-14.909652
-4.444660
-18.472767
-4.325059
-17.318610
-5.068458
-12.348255
-7.017537
-11.484449
-6.630816
-8.823225
-6.731161
-8.680372
-6.094757
-6.569645
-6.236757
-5.773455
-7.828596
-5.637983
-8.217136
-5.124347
-8.113156
-7.295704
-6.952277
-9.943006
-5.413476
-6.524027
-3.844525
-4.480908
-3.058817
-4.248887
-2.378934
-6.386753
-3.507836
-3.273611
-3.546433
-0.047706
-3.663334
2.263566
-1.879758
-0.583612
-0.102973
0.136103
0.131278
3.403913
-1.844566
-1.406111
0.210224
4.286881
-1.934671
-2.020829
0.050724
5.361822
-2.304454
-2.370878
-0.748199
4.270652
-2.182464
-2.832504
-1.785011
3.876501
-2.765930
-2.578170
-4.432434
3.873058
-3.337384
4.274810
-4.020481
3.031544
-5.214813
0.463256
-1.752594
-2.545799
-6.438136
-4.156036
-7.223449
-4.670257
-8.978552
-5.077883
-5.241028
-6.078518
-7.222913
-5.968454
-7.537497
-6.306394
-8.860432
-4.135907
-5.202931
-3.322233
-9.994882
-2.209366
-3.028535
-6.913704
-6.857163
-6.266927
-9.780885
1.879410
-2.681736
5.045976
-2.170349
1.627815
-1.512475
-0.837476
-0.882262
0.587947
-1.504395
0.827271
-2.205899
1.070386
-3.168079
1.232208
-3.240331
-1.159760
-1.121943
1.515281
-3.342243
-1.298231
0.680071
1.135350
-2.726690
-2.226533
-3.854824
0.575028
-2.904833
2.388915
-3.751815
2.608843
2.190251
1.266711
-3.376295
2.804515
-0.933336
-1.323516
-3.854576
2.501095
3.541907
4.917732
-2.309809
2.641044
4.983638
6.384153
7.100768
0.601479
-0.073282
3.125420
6.087302
7.218807
1.733421
2.775500
0.118442
2.771308
-1.239394
2.992318
-2.877559
-7.395272
-5.581606
2.785578
4.040925
6.657203
-2.083376
-8.739781
-5.850670
1.893381
3.131848
5.627464
-2.167997
-6.862875
-6.189012
1.862633
1.304802
5.524931
-2.600860
-4.952639
-4.429666
1.053683
-0.062578
3.452946
-2.402538
-3.340347
-2.051571
-0.178909
-2.597345
-3.021404
-1.025473
-1.028210
-1.658744
-2.612525
-1.057454
-1.559053
-1.019625
-6.529367
-5.078241
-2.332522
-2.053226
-0.549179
-2.793564
-2.098544
-2.535802
-3.432102
-4.039409
-0.901655
-1.901050
-3.447986
-4.308654
-1.455342
-2.324523
-2.017768
-1.686269
-2.727936
-1.653376
-3.790416
0.077281
-0.115478
-0.801642
-3.604843
2.760101
2.337316
-0.499751
0.394571
2.832772
2.172475
-0.447989
1.404233
2.185540
1.907823
-0.085217
1.986884
2.016857
1.827288
0.353958
0.471338
2.697261
2.568596
-1.571859
-0.040928
4.775588
1.142340
-0.416326
0.293133
-0.100650
0.178078
0.513137
-0.956149
0.258815
-3.480092
-1.304053
-5.435952
1.144248
1.186054
-2.064728
-4.090202
1.753696
-5.157505
2.719143
-7.770565
-0.347041
-5.206656
-1.492971
0.124037
1.830787
1.344569
-0.437712
1.746420
-0.205287
1.824587
-0.363743
2.477313
-0.442024
3.004308
0.125071
2.662232
0.051594
4.452010
-0.721888
8.940222
-0.913854
3.981122
-0.551112
2.330160
-0.814721
1.030271
-0.893634
0.228077
-0.682716
3.964184
4.202259
5.107522
2.771106
5.980939
0.337609
6.037815
-1.788613
4.776696
-1.636683
4.082113
-3.649202
1.486146
-5.720018
-1.247380
-5.488601
-6.879587
-5.044261
-7.552133
-6.265633
-6.217996
-5.337356
-7.011892
-0.486351
-5.278253
3.148841
-3.346128
5.045738
-3.509115
6.628580
-3.137935
3.626884
-3.430284
0.870609
-2.687719
-0.893170
-2.453472
-2.207560
-1.814433
-1.633046
-2.732997
-3.048411
-2.891156
-5.133450
-2.890043
-6.311643
-1.746351
-2.186816
-2.938483
-6.450468
-0.797354
-4.816516
-7.090910
-3.620728
-0.312041
-4.692007
-4.689088
-3.019857
0.087991
-5.564048
-5.269586
-3.948123
0.133535
-6.214302
-6.171641
-5.909081
0.223420
-3.533966
-6.084107
-9.545007
-0.368733
-2.390883
-7.185589
-9.433041
-8.762104
-7.872264
0.320098
2.112116
-7.078412
-5.115750
-2.378924
1.388085
-5.267049
0.313867
0.385728
-2.325107
0.562702
-0.948248
-5.239941
1.118143
0.409051
-4.790066
0.942638
-0.274709
-3.605032
-5.273282
1.655679
-5.142930
2.258469
2.705835
2.566845
-8.140655
1.437460
2.596446
2.828764
-6.132739
1.204767
2.692418
2.665013
-4.545249
2.953315
2.746027
2.870035
2.569132
2.733324
-3.594216
2.499665
2.632674
2.100625
-2.436077
2.185906
2.352982
1.831261
-0.942063
1.931906
-0.374657
1.271962
-0.426115
-0.385164
-0.165407
-0.002217
1.318087
1.340800
0.478322
-1.607536
2.527323
-0.841883
2.225837
-2.164063
2.245329
-0.414498
1.498456
-1.598779
5.373123
0.283305
1.266620
-0.160981
7.147930
1.921405
1.613082
2.072891
3.302862
6.924419
6.736305
4.971184
0.723250
1.658395
4.608557
7.802356
-0.803670
-0.458619
-0.815865
-0.167045
-1.664381
0.941823
-2.386253
-1.010403
-1.786622
-1.722684
-0.488805
-0.312959
-2.103138
-1.033776
-0.540926
0.959945
-2.536556
-3.506757
0.273599
1.519882
-2.038713
-6.242476
2.747774
0.371344
0.936777
1.588693
-2.391433
-3.765726
5.746392
-0.262984
-2.423612
-3.111384
-1.031189
-0.351493
-0.328810
-0.100906
2.191702
-0.776915
-2.748032
-2.815974
-1.800637
-0.933260
-2.679175
-2.825512
-1.882969
-1.088289
-2.121764
-1.880538
-2.071863
-2.203853
0.595702
-3.213192
7.343845
-2.147007
4.057392
-3.221018
-2.617935
-3.838280
2.375326
-5.593379
-4.262673
-3.883213
0.013376
-4.540806
-3.530238
-2.737865
-0.093994
-8.402145
-8.934284
-3.652923
-3.251405
-6.353265
-6.983068
-3.848249
-2.706422
-6.151301
-6.363150
1.078044
1.808447
2.568375
-0.260000
0.739068
-0.443232
0.333698
-0.542824
-0.147528
-0.842599
-0.856988
-0.798896
-0.147749
-0.101506
6.019040
4.408693
1.360665
4.907786
-1.656728
3.987280
-1.805244
3.279770
-0.774873
2.890936
0.581893
1.913721
0.878079
-1.109731
2.099497
-1.419274
3.074446
-1.072272
3.769446
-1.454433
2.589305
-2.870946
2.205244
-2.595562
3.017593
-0.952697
3.424133
3.037940
5.378675
-1.870623
-2.779275
-1.785392
6.532516
-5.685654
-2.632423
-0.395295
7.138160
1.900656
6.946896
3.905533
6.837965
3.758807
6.578293
3.737021
4.982653
9.191698
5.720839
-0.314057
1.781453
-0.954554
-1.533833
-1.375945
-4.213858
-3.194831
-3.448027
-5.164251
-2.566198
-5.765571
-2.198479
-2.804179
-2.488450
-3.132077
-2.138915
-2.352521
-2.913405
-0.985214
-1.971734
-2.600501
-2.340817
-0.995425
-2.024037
-0.883892
-3.398475
-5.300600
-7.540752
-4.385572
-3.337685
-3.458034
-7.597751
-2.815179
-7.937823
-1.937899
-7.533571
-1.240815
-6.540391
0.065611
-3.282805
-1.042221
-1.437548
-2.458134
-0.738400
0.993773
-3.535282
0.897628
-3.649624
-1.071557
-2.740721
-2.253424
2.880400
2.432894
1.184492
3.509008
3.065281
4.109507
6.134899
3.740243
5.398292
2.887224
3.561371
2.067797
3.601717
-3.485259
1.902602
-0.984063
3.561444
0.906952
2.536305
-4.354186
3.055445
4.755033
3.646103
-2.500948
1.249502
4.764457
5.357189
-2.686116
-6.691554
-4.264465
-3.550854
-5.142897
0.717022
4.263370
7.611900
-3.773365
-4.388957
-4.420702
-0.544304
5.770541
9.790979
-3.864166
0.669042
-2.422163
0.918359
4.695122
11.065586
0.618566
0.279688
-1.605654
2.350471
4.877987
-0.656559
-2.440701
3.037611
4.969566
-1.947805
-3.063781
3.174414
-4.930805
-7.988835
4.371874
-1.428549
-3.177336
2.991276
-2.220764
-6.815745
3.709206
1.984053
-6.320614
2.856118
-1.064999
1.494984
-8.289426
2.324858
-1.309920
4.683187
-8.402505
0.917956
-1.847140
5.810201
-6.275566
0.407605
-1.736945
6.568744
-1.178450
-4.457184
-4.413745
-0.396103
-1.291777
5.537333
-1.418369
-4.326032
-2.137965
-0.847833
-1.259529
5.984521
4.193102
-2.812764
2.098631
1.611481
-8.128319
-0.984428
-0.780233
6.909724
6.250070
-2.117928
2.359915
1.313495
-10.222498
-3.342813
2.389957
1.335344
-8.866469
-3.037946
-1.260925
-3.384607
-0.965819
1.273058
-8.042725
-4.761134
-1.925621
-0.200746
-7.425111
-10.730422
-2.681744
-0.884484
-8.250497
-12.938322
-4.162766
-17.280733
-9.560232
-12.358500
-9.150988
-19.463047
-4.014766
-19.407885
-2.783611
-18.500581
-2.197835
-19.242405
-4.209369
-13.934066
-4.778687
-8.951894
-4.462975
-6.149954
-4.805889
-6.824957
-5.318608
-6.368387
-5.194278
-4.673859
-6.883466
-5.103103
-9.928062
-7.159200
-8.355926
-10.089825
-8.203025
-4.349559
-3.608692
-4.493733
-3.585090
-7.958484
-9.345397
-7.582932
-7.530398
-6.535308
-6.079043
-3.135440
-6.969883
-1.113889
-4.890001
1.903365
-1.233924
-0.528596
0.050972
3.747799
-0.190972
4.066970
-1.946424
-2.761730
-1.049766
7.788177
-2.474539
-3.673244
-2.261007
4.078956
-2.606950
-3.556453
-4.581893
3.923459
-2.744991
-2.660664
-4.630053
3.485069
-1.645150
4.013523
-5.661583
2.348632
-8.100841
-6.923629
-5.782460
-7.684234
-5.969555
-5.714880
-7.912896
-4.416742
-10.576047
-4.266334
-11.793404
-5.165893
-12.701356
-4.657445
-14.238896
-0.879817
-0.918452
2.443080
3.462106
3.513100
0.454229
0.007755
-0.841615
0.316289
-1.367975
0.690186
-2.140566
0.679967
-1.990865
-3.536476
-3.614316
0.364070
-2.041146
-2.058871
-2.292875
0.707315
-2.076851
0.850766
0.922228
4.140702
-1.317955
-0.022970
-0.840477
-2.822730
-2.839925
-1.028960
4.281560
8.441463
-1.036150
-1.114741
3.570627
1.577890
1.956078
2.282912
0.451570
2.028280
-0.890369
-3.138727
-3.402781
2.238537
-2.579613
-7.666155
-2.024040
2.312616
-3.065096
-9.028330
-2.072467
1.696371
2.967502
4.579636
-3.377621
-7.968836
-1.657963
0.823892
1.632923
3.895531
-1.975653
-5.767559
-1.374813
0.293964
0.383857
2.461265
-2.966796
-3.254816
-0.386962
0.004187
-4.729326
-3.027619
-0.927789
0.143551
-3.634125
-1.968423
-2.462673
1.166849
-2.033829
-1.234680
-3.111152
1.064222
-4.609504
-3.573293
-3.061157
0.699290
-3.661506
-0.671083
-3.888527
-1.485107
-4.123687
-2.521084
0.535121
-1.188210
-1.508947
-2.526642
0.326956
-0.981301
-0.768544
-0.368993
2.222062
2.968654
-0.100368
-0.381878
-0.765085
2.291999
2.887429
2.558893
-0.556723
3.579251
2.801199
2.071246
0.321340
3.871527
2.522157
2.592099
0.817170
2.296800
-1.151846
2.144541
-5.109727
0.953095
-2.847027
-0.083072
-2.469697
-1.358109
-2.504834
-3.358403
-4.445836
-5.393633
-3.839487
-3.081995
1.798412
0.940969
-2.996433
-3.528113
-0.807754
1.599563
1.972513
-4.704323
-0.328113
-2.759370
-1.295910
0.816733
-0.211050
1.311643
0.062784
1.756574
0.357055
2.345356
0.605149
2.773585
1.138553
3.236713
1.212608
1.902135
0.512923
1.838290
-0.248823
0.668404
-0.259715
4.157211
3.479642
5.449023
2.805998
8.442478
1.387192
10.401806
-0.330114
5.703848
-2.282932
3.312235
-5.025055
1.176273
-8.229361
-0.310129
-8.669603
-8.513756
-7.150095
-9.080901
-7.126006
-9.680161
-3.646123
-10.251510
-3.224967
-10.372808
0.183751
-6.065413
2.658094
-6.422201
3.765725
-6.344784
2.962480
-7.216058
2.063359
-3.637071
0.529346
-3.053730
-0.655956
-1.884293
-2.177227
-2.408631
-2.383787
-1.281458
-1.595498
-2.626599
-3.459388
-0.850896
-1.650064
-2.436257
-4.717070
-0.722102
-2.183101
-1.967556
-5.217694
-0.588601
-3.015943
-3.714672
-4.250084
-0.368160
-4.434728
-6.869090
-6.739315
-6.322998
-4.824706
0.067079
-4.929855
-7.432688
-6.267949
0.158938
-5.065819
-8.271616
-10.243516
0.146474
-3.611446
-8.192808
-12.868704
-0.696579
-3.000967
-10.651754
-13.199677
-11.231011
-9.652401
-0.356146
3.923231
-3.779596
2.086988
0.617065
-2.354509
-3.392105
2.013440
0.632112
-4.177473
0.049575
1.635872
-1.736841
-4.593685
0.192846
-4.489697
1.460758
2.355597
2.754484
-3.529601
1.290151
2.176491
3.088726
-4.411135
1.338050
2.537905
2.961024
-3.160210
2.185872
3.387974
2.640797
-2.800178
2.204561
2.772248
2.692110
-1.831278
1.123278
-0.745488
-0.054550
-0.662123
-1.488999
0.493731
-0.006603
0.039430
-2.988105
-0.366562
-0.210411
1.328752
-1.508275
-0.926219
-0.578390
1.704413
0.596892
2.119269
0.986126
2.063201
0.856280
3.442790
0.559878
1.601426
2.172096
4.294943
1.692646
1.306544
3.335310
0.003420
-3.018240
-1.604092
-3.589549
-2.968494
-3.733457
-3.931022
-3.610434
-3.915036
-3.163966
-3.436987
-0.965304
-3.294578
-1.852524
-1.717413
0.258373
-2.623965
-2.402446
-0.380766
0.911791
-1.629957
-2.363956
1.356987
0.913148
-1.744839
-0.213174
0.282467
-0.161170
-2.405057
0.607297
-0.651416
-0.724496
-3.557891
-0.573851
-1.358705
-0.733608
-3.085537
-0.977828
-1.612951
-1.198256
-3.930034
-1.662733
-1.762142
-1.823597
-2.111815
-2.010426
0.147836
-2.102762
-2.542958
-1.987399
3.510366
-3.211840
-3.644788
-1.589098
4.881343
-4.132284
-4.086586
-1.820929
9.376636
-7.177983
-4.971865
-1.975115
1.376213
-7.258609
-4.423023
-1.912926
-2.086807
-6.024384
-4.201741
-0.297571
-3.130030
-3.001281
-2.466592
-0.615221
-3.120258
-2.889755
-2.064802
-0.698885
-3.566052
-2.164923
-1.851385
-1.117280
-3.321647
-1.900115
-2.749828
1.045680
1.551681
2.942127
2.595367
2.370002
0.205133
0.656213
0.851948
1.273914
-0.182415
0.430864
0.047536
0.214542
-0.368237
0.001976
0.879284
8.177302
9.560948
1.424222
6.979165
-1.457837
4.106282
-1.281216
3.021052
-0.137734
2.590504
0.710150
-1.372415
1.764203
-2.436954
1.205349
-2.212284
0.950084
-2.724719
2.559103
-5.398065
3.238898
-3.887394
4.046342
-3.053186
11.831249
-1.522698
-2.431703
-3.900005
5.914569
-2.377680
-2.317951
2.167805
5.016127
2.337555
5.849769
2.804314
7.778374
9.223517
7.732262
4.359647
7.201905
2.481135
5.363058
-0.430905
0.595620
-0.986324
-0.954115
-1.424475
-2.318016
-2.908344
-3.347500
-4.996800
-2.950052
-2.836723
-2.401783
-5.504102
-3.192062
-2.695958
-2.302222
-4.562076
-2.501428
-2.634261
-3.000765
-5.201998
-2.605045
-2.919183
-4.106074
-2.921303
-5.367611
-2.987420
-4.765072
-3.000288
-4.130976
-3.452592
-5.419483
-3.596008
-6.941589
-2.089655
-1.846520
-2.916475
-7.868731
-2.537212
-7.475663
-2.951996
-2.354482
-1.588078