# vtk DataFile Version 1.0
vtk file 3j3q_1:NBA:bQ_model1
ASCII
DATASET POLYDATA

POINTS 17906 double
-15.932000 -16.002000 -5.604000
-13.742000 -16.197000 -5.601000
-18.691000 -16.016000 -4.632000
-12.802000 -16.331000 -4.793000
-21.047000 -15.989000 -3.626000
-9.092000 -16.130000 -3.472000
-25.643000 -16.219000 -2.583000
-8.806000 -16.116000 -2.416000
-27.704000 -16.396000 -1.369000
-9.065000 -16.336000 -1.449000
-27.482000 -16.450000 -0.524000
-8.935000 -16.207000 -0.541000
-24.966000 -16.134000 0.613000
-8.533000 -16.392000 0.349000
-24.264000 -16.344000 1.585000
-4.927000 -16.378000 1.506000
-24.145000 -16.269000 2.388000
-4.491000 -16.279000 2.443000
-24.177000 -16.142000 3.459000
-4.134000 -16.374000 3.536000
-23.932000 -16.185000 4.474000
-3.808000 -16.211000 4.388000
-23.243000 -16.140000 5.574000
-3.920000 -16.052000 5.274000
-23.219000 -15.974000 6.279000
-4.953000 -16.003000 6.246000
-23.486000 -16.167000 7.402000
-6.795000 -16.211000 7.459000
-22.922000 -16.344000 8.537000
-6.752000 -16.211000 8.339000
-22.571000 -16.211000 9.388000
-6.178000 -16.311000 9.429000
-2.954000 -16.222000 9.301000
-0.855000 -16.113000 9.486000
-22.708000 -16.211000 10.388000
-6.019000 -16.186000 10.388000
-3.608000 -16.025000 10.414000
-0.849000 -16.152000 10.338000
-22.819000 -16.211000 11.388000
-5.851000 -16.226000 11.448000
-4.533000 -16.111000 11.344000
-1.711000 -16.212000 11.605000
-22.550000 -16.249000 12.265000
-1.687000 -16.240000 12.459000
-21.509000 -16.399000 13.359000
-0.998000 -16.112000 13.447000
-21.132000 -16.095000 14.389000
-0.712000 -16.023000 14.468000
-21.087000 -16.079000 15.459000
-1.051000 -16.028000 15.398000
-20.922000 -16.244000 16.447000
-6.985000 -16.113000 16.373000
-16.547000 -16.110000 17.341000
-12.786000 -16.268000 17.412000
-10.734000 -16.424000 17.378000
-8.694000 -16.071000 17.565000
4.501000 7.733000 -22.439000
6.418000 7.843000 -22.566000
-0.879000 7.827000 -21.403000
1.373000 7.696000 -21.649000
4.357000 7.620000 -21.541000
6.462000 7.870000 -21.779000
-8.857000 7.853000 -20.413000
-5.663000 7.710000 -20.673000
-1.054000 7.812000 -20.445000
1.883000 7.600000 -20.736000
4.398000 7.859000 -20.414000
6.094000 7.804000 -20.779000
12.431000 7.732000 -20.443000
14.156000 7.808000 -20.468000
-9.039000 7.986000 -19.452000
-5.051000 7.612000 -19.742000
-0.763000 7.703000 -19.577000
2.166000 7.697000 -19.843000
3.934000 7.964000 -19.678000
6.098000 7.826000 -19.683000
8.367000 7.809000 -19.378000
15.163000 7.670000 -19.743000
-9.208000 7.982000 -18.646000
-4.890000 7.606000 -18.833000
0.954000 7.960000 -18.389000
6.497000 7.824000 -18.804000
7.995000 7.864000 -18.725000
15.367000 7.839000 -18.822000
-10.013000 8.015000 -17.658000
-2.625000 7.760000 -17.655000
0.848000 7.971000 -17.608000
16.132000 7.708000 -17.787000
-10.834000 7.810000 -16.547000
20.530000 7.766000 -16.670000
-10.978000 7.958000 -15.558000
21.426000 7.759000 -15.847000
-11.586000 7.720000 -14.383000
23.072000 7.753000 -14.721000
-11.774000 7.640000 -13.413000
24.886000 7.575000 -13.763000
-11.701000 7.802000 -12.413000
27.016000 7.577000 -12.530000
-12.078000 7.789000 -11.577000
27.100000 7.799000 -11.712000
-13.476000 7.986000 -10.554000
27.175000 7.747000 -10.683000
-13.867000 7.962000 -9.702000
27.520000 7.813000 -9.712000
30.436000 7.723000 -9.376000
31.890000 7.591000 -9.705000
-13.455000 7.891000 -8.685000
27.472000 7.995000 -8.733000
30.465000 7.754000 -8.711000
31.944000 7.609000 -8.808000
-13.090000 7.661000 -7.800000
30.329000 7.788000 -7.661000
-13.637000 7.826000 -6.639000
19.931000 7.862000 -6.532000
21.194000 7.665000 -6.579000
30.478000 7.872000 -6.779000
-14.154000 7.956000 -5.771000
18.546000 7.710000 -5.449000
21.228000 7.778000 -5.779000
30.214000 7.813000 -5.837000
-14.869000 7.789000 -4.605000
12.279000 7.748000 -4.375000
14.250000 7.670000 -4.742000
19.023000 7.737000 -4.460000
20.972000 7.768000 -4.851000
28.206000 7.869000 -4.684000
-15.192000 7.952000 -3.606000
12.219000 7.758000 -3.561000
14.520000 7.873000 -3.730000
27.602000 8.000000 -3.706000
-15.390000 7.614000 -2.450000
14.054000 7.845000 -2.387000
18.176000 7.667000 -2.524000
27.520000 7.975000 -2.725000
-15.011000 7.831000 -1.560000
14.094000 7.689000 -1.512000
18.386000 7.689000 -1.512000
28.242000 7.895000 -1.556000
-14.002000 7.784000 -0.382000
-12.768000 7.804000 -0.755000
-11.768000 7.828000 -0.555000
14.425000 7.762000 -0.741000
18.203000 7.860000 -0.631000
28.900000 7.647000 -0.694000
-13.975000 7.798000 0.333000
28.180000 7.914000 0.366000
-14.626000 7.797000 1.604000
28.244000 7.907000 1.317000
-14.540000 7.639000 2.523000
28.173000 7.871000 2.331000
-14.077000 7.639000 3.549000
21.160000 7.915000 3.443000
24.299000 7.737000 3.346000
26.511000 7.819000 3.468000
-13.873000 7.889000 4.288000
19.567000 7.877000 4.591000
-13.519000 7.736000 5.161000
-4.397000 7.760000 5.574000
-1.859000 7.585000 5.418000
19.058000 7.839000 5.275000
-11.907000 7.641000 6.242000
-9.591000 7.867000 6.462000
-8.680000 7.640000 6.378000
-4.699000 7.841000 6.489000
0.324000 7.861000 6.545000
7.181000 7.814000 6.594000
8.217000 7.743000 6.280000
16.024000 7.919000 6.359000
-7.562000 7.829000 7.204000
-5.145000 7.987000 7.366000
0.773000 7.823000 7.431000
7.005000 7.847000 7.303000
11.064000 7.671000 7.388000
14.272000 7.956000 7.346000
0.535000 7.844000 8.234000
2.061000 7.817000 8.468000
0.371000 7.811000 9.118000
1.002000 7.815000 9.445000
9.063000 7.775000 10.384000
13.147000 7.907000 10.543000
8.358000 7.925000 11.246000
13.244000 7.754000 11.488000
8.428000 7.861000 12.166000
13.033000 7.993000 12.412000
-27.338000 -16.329000 -2.017000
-27.057000 -16.394000 -0.359000
-26.384000 -16.204000 -2.239000
-26.166000 -16.102000 -0.282000
-25.313000 -16.287000 -2.883000
-25.438000 -16.173000 0.156000
-24.258000 -16.275000 -3.406000
-24.428000 -16.157000 1.274000
-23.199000 -16.111000 -3.252000
-23.408000 -15.972000 5.130000
-23.410000 -16.214000 6.734000
-23.246000 -16.011000 7.895000
-22.299000 -16.211000 -3.188000
-22.217000 -16.267000 12.695000
-21.533000 -16.322000 -3.489000
-21.259000 -16.167000 13.591000
-20.366000 -16.235000 -4.128000
-20.078000 -16.334000 16.927000
-19.454000 -16.349000 -4.480000
-19.161000 -16.089000 16.760000
-18.310000 -16.258000 -4.740000
-18.299000 -16.211000 16.744000
-17.299000 -16.211000 -4.937000
-17.256000 -16.285000 16.803000
-16.483000 -16.335000 -5.333000
-16.251000 -16.030000 17.712000
-15.375000 -16.233000 -6.016000
-15.400000 -16.199000 18.120000
-14.484000 -16.102000 -6.025000
-14.399000 -16.278000 18.186000
-13.286000 -16.215000 -5.042000
-13.399000 -16.297000 17.832000
-12.267000 -16.081000 -4.344000
-12.422000 -16.416000 17.165000
-11.299000 -16.211000 -4.041000
-11.495000 -16.302000 17.148000
-10.299000 -16.157000 -3.978000
-10.334000 -16.235000 17.750000
-9.418000 -16.129000 -3.803000
-9.377000 -16.391000 18.048000
-8.120000 -16.264000 0.525000
-8.138000 -16.199000 17.181000
-7.299000 -16.319000 0.733000
-7.364000 -16.172000 16.696000
-6.267000 -16.181000 0.729000
-6.226000 -16.211000 6.764000
-6.312000 -16.044000 9.074000
-6.179000 -16.167000 16.184000
-5.402000 -16.211000 1.052000
-5.456000 -16.377000 6.478000
-5.180000 -16.214000 11.787000
-5.299000 -16.211000 16.197000
-4.301000 -16.040000 3.080000
-4.420000 -16.431000 6.010000
-4.108000 -16.131000 11.068000
-4.428000 -16.160000 16.075000
-3.350000 -16.095000 10.018000
-3.299000 -16.128000 15.750000
-2.125000 -16.219000 8.774000
-2.299000 -16.096000 15.775000
-1.358000 -16.197000 8.849000
-1.290000 -16.170000 10.939000
-1.297000 -16.081000 12.943000
-1.477000 -16.167000 15.607000
-15.318000 7.562000 -3.318000
-15.304000 7.776000 -1.931000
-14.350000 7.622000 -5.354000
-14.271000 7.858000 -0.930000
-14.294000 7.806000 0.919000
-14.261000 7.972000 2.970000
-13.056000 7.882000 -10.790000
-13.306000 7.935000 -8.252000
-13.281000 7.582000 -7.079000
-13.150000 7.941000 5.601000
-12.374000 7.703000 -11.174000
-12.187000 7.802000 -1.078000
-12.387000 7.829000 -0.360000
-12.466000 7.692000 5.920000
-11.380000 7.652000 -14.937000
-11.347000 8.013000 6.878000
-10.444000 7.766000 -17.285000
-10.315000 7.892000 6.770000
-9.479000 7.853000 -18.298000
-9.275000 7.559000 6.221000
-8.436000 7.617000 -21.058000
-8.368000 7.969000 6.660000
-7.466000 7.756000 -21.242000
-7.182000 8.039000 7.576000
-6.394000 7.669000 -21.051000
-6.299000 7.931000 7.736000
-5.412000 7.817000 -20.190000
-5.496000 7.858000 7.520000
-4.285000 7.875000 -18.223000
-4.223000 7.607000 5.239000
-3.207000 7.789000 -17.872000
-3.466000 7.701000 4.949000
-2.207000 8.015000 -17.426000
-2.510000 7.732000 5.019000
-1.399000 7.832000 -17.280000
-1.337000 7.971000 5.732000
-0.438000 7.603000 -21.975000
-0.094000 7.808000 -19.204000
-0.380000 7.957000 -16.963000
-0.350000 7.819000 5.954000
0.611000 7.643000 -22.059000
0.713000 7.891000 -18.870000
0.518000 7.819000 -17.300000
0.666000 7.916000 7.041000
0.662000 7.716000 7.907000
0.591000 7.837000 9.561000
1.581000 7.804000 -21.158000
1.553000 7.765000 8.901000
2.736000 7.931000 -19.388000
2.561000 7.629000 7.914000
3.522000 7.825000 -19.499000
3.512000 7.734000 7.631000
4.702000 7.608000 -22.881000
4.534000 7.901000 7.724000
5.653000 7.641000 -23.112000
5.534000 7.849000 7.901000
6.725000 7.979000 -18.483000
6.576000 7.893000 7.734000
7.546000 8.000000 -18.382000
7.606000 7.734000 6.026000
8.768000 7.599000 -19.907000
8.664000 7.863000 6.783000
8.819000 7.592000 10.853000
8.736000 7.941000 12.727000
9.601000 7.766000 -19.991000
9.629000 7.738000 7.039000
9.752000 7.919000 9.860000
9.491000 7.838000 13.097000
10.534000 7.681000 -19.846000
10.628000 7.672000 7.286000
10.867000 7.728000 9.789000
10.534000 7.690000 12.977000
11.692000 7.563000 -19.967000
11.613000 7.806000 7.668000
11.867000 7.735000 9.704000
11.534000 7.725000 12.914000
12.856000 7.557000 -20.682000
12.661000 7.691000 -4.846000
12.894000 7.813000 -3.114000
12.701000 7.772000 7.779000
12.629000 7.789000 9.958000
12.474000 7.742000 12.768000
13.644000 7.667000 -20.734000
13.503000 7.741000 -5.071000
[...]
POINT_DATA 17906
SCALARS Potential double
LOOKUP_TABLE default
0.259615
-1.068242
0.544859
-2.004748
-1.827476
-2.766480
3.935943
-3.245654
2.968545
-2.532798
2.421215
-1.906420
-0.687504
-1.282404
-2.347875
0.365280
-3.330680
-0.208106
-5.014577
-1.423761
-5.207287
-2.092594
-4.429811
-1.702779
-5.981797
-1.217988
-6.030013
-1.295648
-4.211223
-2.665888
-2.659203
-4.112380
4.915585
7.380421
-3.682594
-4.033953
2.829857
4.580357
-4.048374
-3.692480
-4.285403
0.654816
-2.944671
-1.437423
0.570655
2.385956
2.577924
-0.503242
7.886668
-4.962547
7.434488
-9.831419
0.229944
-3.679822
-5.133659
-10.529809
1.772638
2.156470
1.372518
4.626732
1.701236
1.541581
0.578047
2.990451
3.156765
0.805426
1.777876
1.279250
2.911855
3.034724
-2.001690
3.163397
8.219826
0.782393
1.383601
0.492902
-2.352289
3.238128
-3.527565
1.371945
3.061351
-1.100587
-1.681472
3.758628
-4.628009
2.490187
2.798846
3.946874
-5.171282
0.076406
-5.034698
0.930663
-7.642621
4.477086
-8.127483
-1.491057
-7.208661
-6.032404
-7.179568
-4.943230
-1.325791
-1.222887
0.590405
4.140056
-1.463505
6.247840
1.392097
0.665666
-2.193421
0.928840
1.355186
-3.867238
0.162516
-9.067453
-10.156664
-5.783876
-1.505903
-6.487818
-13.172084
-6.479292
-2.956963
-3.615962
-3.454047
-7.692123
-11.233583
-4.265003
-2.545056
-1.597123
-2.387833
-4.033317
-1.739934
-0.246265
-2.317986
-3.223026
-1.430637
1.826118
-2.268094
-2.118979
-1.533766
-1.225176
-1.576674
3.877411
-2.575361
-2.129445
-1.402484
-3.658151
-3.311611
-8.013008
-3.447063
-10.649234
-3.033718
-8.623554
-10.094610
-10.327376
-3.381827
-5.554559
-3.594590
-2.311031
-4.896377
-6.579112
-2.644226
-1.605935
-1.118731
-1.807713
-7.114227
-5.240483
-5.858164
-6.417318
-0.295798
-1.864441
-6.495461
-4.606048
-4.450244
-7.027845
-9.869511
-9.055714
-13.005621
-13.496005
-7.666984
-6.749406
-8.975913
-6.888914
-8.820925
-7.975056
3.736360
2.106480
3.706624
1.651203
4.361784
0.842318
4.384818
-2.428238
3.004249
-5.479969
-5.616179
-5.505707
1.679587
-1.915323
-0.085314
0.897755
-0.287703
2.710668
-0.042732
1.831458
-0.609604
1.350798
-0.781041
0.786958
-0.714501
-0.118010
-0.219753
-1.079107
-0.240925
-2.430636
-1.338087
-3.383525
-2.009306
-4.079222
-2.513738
-4.805248
-2.216611
-5.094274
-2.602229
-9.440695
-1.165133
-10.779284
-0.637847
-11.427114
-0.083205
-0.914073
-3.956609
-9.448627
0.183158
-1.470986
-3.749562
-9.911404
-0.729312
-1.953186
-2.908102
-9.010533
5.574870
-6.588758
6.394605
-5.956501
9.680580
3.479949
0.543083
-6.146581
-2.446923
-1.974857
-2.479731
-1.254576
-1.951352
-2.971709
-3.522605
1.679092
0.885494
-3.682707
-6.474243
-1.925857
-1.388011
-3.096513
-6.552840
-2.392600
-4.902958
-1.884075
-3.909930
-1.441855
5.836270
-0.874151
9.401897
0.580363
3.491141
-0.405317
2.937408
-1.750638
0.810559
-2.830584
2.195570
-4.094018
2.389331
-4.334234
2.892960
-6.649957
2.098322
6.931713
2.153922
-6.031963
7.482585
3.177598
2.394066
-6.797662
-8.258515
-14.493438
2.621512
-11.075981
1.401175
-8.347436
1.239716
-8.040759
1.883294
-7.865736
2.043984
-5.744566
-1.310679
-1.989169
-1.307664
-5.473653
-2.117337
-5.328716
-7.311928
-8.166934
-2.233392
-5.433401
-7.943376
-5.998396
-0.917776
-5.643286
-6.805958
-5.645541
1.799754
-5.425745
-6.578419
-6.436001
2.952311
-4.670706
-1.046572
-6.048750
-7.195759
-7.298557
3.109405
-4.233303
-0.750130
-6.536686
3.096744
-1.556360
3.497575
-6.643761
4.122259
-1.703600
1.443674
-6.267375
5.224610
-2.345457
-1.215942
-5.975133
5.231696
-1.953044
-2.214326
-5.908861
4.077673
-7.480410
-6.243396
-6.659406
1.085051
-9.526056
-7.562367
-6.248802
0.639305
-9.912623
-9.432387
-8.349585
2.636731
-8.689552
5.779113
-10.015631
2.934963
-11.008335
0.047583
-9.636209
-4.578193
-9.669485
-5.817072
-10.806901
-0.972096
-3.269972
-2.514878
-11.588160
-3.057555
-4.862168
-1.895999
-2.908923
-4.096132
-5.746012
-0.332888
-1.993124
4.864868
-1.177685
0.605025
0.189785
-1.685118
-1.780403
-2.393110
-1.332211
-4.929008
-4.444448
-2.806773
-1.120192
-4.304240
-5.917141
-2.872560
-3.316682
-2.093383
-5.411722
-2.199325
-3.750164
-0.356119
-7.584243
-1.416487
-1.614548
0.526060
-5.429390
-1.637556
0.935727
6.288720
3.812853
1.342329
-1.683021
-1.686053
1.223630
7.483404
4.859431
2.372178
-2.050530
-1.337129
0.820671
2.947538
-2.544901
0.153148
-3.364632
2.894364
-4.503980
2.500742
-6.089989
3.277561
-7.670578
4.731180
-5.946937
5.075555
-3.700499
4.076508
-3.079136
3.615917
-3.710794
3.540522
1.997339
1.891254
-5.695735
1.339898
-4.875686
-0.180540
-0.254897
-1.610067
0.644136
-0.816720
0.769235
2.363750
0.636275
7.284151
-0.500360
10.732472
-0.457177
5.814126
0.297680
1.853961
3.537296
-0.547668
4.727208
-0.060370
4.449642
1.885477
1.898601
2.437996
-0.597771
-3.132367
-2.842542
-4.894913
-2.105314
-4.654854
-0.766185
-2.516333
0.431486
-1.220797
1.069386
-0.700678
1.493139
-1.445610
2.528689
-1.703911
0.963604
-1.884377
-0.452641
2.297194
1.780530
1.657466
1.674754
1.389878
0.733820
-2.617465
0.441207
-1.665748
-2.834005
-0.264011
-5.511641
0.435993
-4.734603
-3.987907
-5.300020
-0.121247
-3.792508
-5.976676
-5.520175
-0.337894
-4.269993
-0.383860
-3.695745
-0.683627
-5.016033
-1.167511
-2.037127
1.216411
-4.088071
-1.662487
-3.151413
-2.103055
1.721947
-1.862860
2.553709
-2.538262
2.384586
-3.589632
0.259507
-4.559501
-9.114451
-5.680531
-9.133298
-6.106113
-3.911740
-6.384822
-2.394450
-8.055488
-2.277789
-10.167305
-0.586536
-9.722536
-1.156736
-1.694348
0.539728
-0.217732
-1.266489
-10.274512
-1.449293
0.267904
-8.362365
0.303736
-5.251925
-13.811737
-14.208243
-11.258958
3.294458
2.708445
4.188889
5.318985
-8.526834
-9.986781
-12.702037
-4.922947
-0.118256
3.749368
4.826705
4.178197
-8.652587
-12.004731
-7.225057
5.310273
5.579045
3.086621
-6.873208
-11.644622
-8.219082
11.893326
6.549202
0.665967
-6.802064
-13.728097
-6.783030
-9.743463
-6.601166
-6.609885
-6.374484
-4.792880
-9.311337
-9.638128
-7.216115
9.871618
-6.283782
-10.592000
-6.352928
2.839270
2.128327
-10.874908
-5.674867
-0.557499
5.532269
-11.879919
-5.796223
-3.824235
-5.811762
-1.465436
-5.940278
-6.705670
-6.971996
-6.729791
-8.869792
-7.412878
-8.644061
-6.419675
-6.849073
-6.460233
-5.652430
-6.980908
-3.766132
-10.470323
-2.638781
-12.527450
-2.695014
-12.459605
-2.688723
-10.489412
-5.030620
-8.930606
-7.447284
-10.362607
-7.161014
-13.341820
-5.163203
-17.347817
-2.948478
-20.030773
0.460666
-19.738670
-3.614503
-4.648835
-4.600736
-20.926399
-17.481962
-8.604681
-4.701448
-11.047946
-5.697979
-10.277807
-2.682700
-17.754575
-15.451299
-8.786718
0.804125
-14.293946
-13.385576
-7.434217
0.047996
-3.562517
-1.040923
-2.863517
-3.339740
-8.647584
-4.042363
-12.825051
-3.187405
-14.702091
-4.003114
-14.773984
-6.416431
-12.689109
-9.507476
-14.475983
-13.383119
2.135437
0.452938
1.432292
-0.824780
-3.354792
-4.183282
-2.546065
-6.801752
3.520670
-6.708385
2.721459
-2.735849
1.284485
-1.818137
-2.236458
-0.216591
-4.603705
-0.704296
-5.320072
-0.762457
-6.614425
-0.381569
-7.550301
-0.292077
-6.378608
0.353868
-7.494094
1.155525
-7.565116
-1.129375
-4.573408
-2.745892
3.376166
9.543530
-2.055981
-2.685580
2.694233
6.194372
-2.534596
6.571363
-3.886821
5.927408
-2.829117
2.559455
-0.206376
6.686529
1.947276
1.030876
3.055262
-2.789163
2.154376
-7.608878
-9.180674
-8.195605
0.522173
-8.757034
-0.508338
-1.750110
-3.993384
-8.533688
-13.892601
-11.786931
-3.353489
-7.326050
-14.398693
-12.999325
0.103584
0.694506
1.325258
0.739976
4.826724
3.713422
-4.455960
-4.604353
1.140636
-0.483860
-0.608720
0.579080
5.808395
5.332527
-3.889115
1.378526
2.324297
-0.552150
-0.125920
4.778191
-4.492276
1.685201
1.751853
1.698777
-4.763526
2.225748
-4.777745
6.792432
-3.293657
4.030033
-3.542810
1.735680
-6.531691
1.040387
-1.833052
-3.084248
0.628068
0.573902
0.919411
-1.848211
1.571977
-0.271724
2.681859
-0.926731
2.830471
-2.260855
0.197595
-4.191590
-1.381328
-6.413955
-1.775785
-6.818100
-1.579368
-5.786919
-1.331214
0.392557
-1.191871
-4.161334
-1.510695
3.255657
-2.091687
-1.657883
-1.207697
4.402235
-3.223340
0.991141
-1.337992
-0.631575
-2.758996
-5.541462
-3.475495
-8.744893
-3.037603
-10.880140
-3.140848
-5.412886
-2.933798
-6.908591
-2.598734
-4.131016
-6.858069
-6.900724
0.266248
-1.726471
-8.636484
-6.934446
-10.080286
-5.913891
-6.691913
-7.503197
-16.030993
-13.579817
-7.592928
-7.053449
-18.434099
-20.628101
-8.720982
-6.753874
-21.070619
-20.742559
-21.147012
-20.986668
-10.544006
-7.782163
-21.935803
-19.532813
-8.359143
-8.035942
-20.591983
-18.462776
-5.928805
-9.776425
-19.150238
-15.060095
-5.755856
-9.777300
-11.341326
-7.289716
-7.058949
-10.192573
-8.531964
-6.706433
3.618147
-0.704045
3.240215
-7.449350
2.603750
-6.838777
-7.415207
-6.462544
1.723365
-3.602789
-1.049308
-1.597754
-1.515197
3.001951
0.691425
2.396132
2.443171
1.563159
3.240796
0.958370
2.090288
-0.075561
0.892961
-0.842844
0.149190
-1.019691
-1.879149
-0.477618
-2.506473
-3.093491
-2.710072
-3.832581
-3.748006
-4.357745
-3.593496
-6.519573
-5.296068
-4.624950
-1.947566
-9.003900
-0.846934
-9.631557
-0.290744
-0.431757
-3.011703
-9.047796
-0.617117
0.514886
-0.668711
-9.781884
-0.417699
-0.022113
1.465409
-9.893423
4.065504
-5.746453
5.768848
-2.797719
8.532259
-3.867666
-11.565312
-13.997783
7.155176
6.900164
2.954909
-0.492807
-11.512935
-12.942876
0.809456
1.993710
-1.583394
-1.408973
-3.460227
-3.575687
-1.501348
-1.809807
-1.939360
-2.993840
-4.927545
-2.252071
-1.670993
-2.522784
-6.672686
-1.856627
-1.522616
-2.309233
-4.465967
-3.598327
-4.547425
-1.780115
-4.401031
-1.227849
-1.873939
-0.419484
1.909341
0.274508
-2.048190
0.004262
-3.146223
-1.140415
-1.679853
-2.427227
0.393297
-4.587316
1.328315
-6.763042
2.035130
-6.824617
1.387253
-6.395344
-12.683949
-19.425082
2.188179
-23.314545
1.935169
-19.251874
1.060947
-16.853276
1.308310
-21.566258
-20.626376
-15.518733
1.292693
-11.314532
-19.833155
-12.428954
0.307792
-8.013251
-10.536067
-8.691200
-0.662696
-4.616677
-10.442531
-7.004078
-0.221207
-5.014583
-8.321268
-6.435416
-0.404131
-6.354673
-8.259383
-7.159019
-6.379317
-7.729115
-0.935910
-5.481796
2.616824
-8.080125
7.132463
-10.473521
7.851275
-10.522225
3.997394
-6.744135
-7.380989
-6.682183
-10.429720
-8.952073
4.716858
0.960954
5.216106
-6.726876
4.740973
-0.791090
2.276089
-6.104171
6.130592
-1.316968
-1.106438
-6.649242
9.245314
-1.265651
-3.492223
-6.573997
5.577752
-7.205346
2.866444
-5.803577
1.703343
-6.529916
3.823799
-8.346004
0.453699
-8.420186
0.812712
-9.420736
0.178573
-10.667572
-3.013255
-11.579579
-1.000153
-12.526518
0.345620
0.946378
-5.721097
-11.048375
8.951478
7.677282
10.358445
7.535791
14.844069
7.589447
4.762697
2.603606
-0.471371
-2.450585
2.525951
-1.686615
0.958289
1.143388
-4.642477
-8.341636
-0.170629
-0.660296
-2.892110
-5.867144
-0.276802
-2.667497
2.148256
-4.321731
-0.514809
-2.926818
6.467515
-4.058608
-0.483371
-2.625430
7.873636
-2.154430
-0.823484
0.860151
12.463169
-2.675747
-0.529126
2.091521
7.229526
-3.556598
0.063450
1.514417
7.062696
-4.674531
5.883568
-6.157387
4.392418
-5.963061
3.413427
-6.419680
4.920489
-7.147188
4.987216
-6.686208
3.901513
-4.841208
3.266222
-3.133117
3.183654
-4.192898
0.183836
-3.621673
-0.167543
0.590895
-1.041166
-2.848352
-0.955843
1.261724
-0.062204
-2.780991
-1.182292
1.351055
0.491133
-2.934454
5.047587
-3.457463
6.805487
-1.567748
7.112337
-1.538219
4.900242
-0.803075
1.424886
2.187554
0.531088
4.216377
0.920500
3.236295
2.162533
1.213328
0.580246
-3.496311
-4.668210
-3.722409
-5.431151
-2.514339
-5.644186
-0.607351
-3.698380
0.450131
-2.541445
0.921077
-2.172044
2.529693
-3.064022
6.539849
-4.552204
2.243188
-2.296361
-0.005606
3.840297
3.574226
5.520886
2.432254
-3.766219
3.162197
7.776357
2.303203
-2.700875
5.865037
8.758692
1.251039
-0.128180
-1.647823
0.958373
-2.643463
-0.649693
-3.538474
-8.845902
-6.462002
-0.428193
-3.709085
-0.464945
-3.927395
-0.778613
-6.579463
-1.376543
-4.653888
-1.841236
-1.334142
-2.108043
0.070243
-3.002267
0.215986
-3.599224
-1.282747
-4.403525
-2.726317
-6.230834
-4.088203
-7.369187
-8.439644
-6.373931
-4.600303
-6.195666
-2.846860
-10.130954
-3.222708
-13.253009
-4.169485
-4.308090
-3.049389
-14.081481
-3.251274
-2.445354
-2.362404
-11.861248
0.523912
-1.043798
-9.254528
-14.254957
-16.679629
-11.911807
2.443387
1.340939
3.209524
2.759623
-8.322808
-14.831565
-15.601248
-8.894154
-0.057425
4.370090
4.001913
1.282889
-7.235431
-16.278037
-10.901659
5.336656
4.474215
-0.596609
-7.492490
-14.715558
-8.635176
6.480361
4.827449
-17.286035
-7.307036
7.556939
5.897500
-15.644504
-5.525143
-14.848322
-6.105529
4.833032
3.497659
-13.423614
-5.019467
-14.798433
-4.220544
-0.309250
0.333147
-16.035409
-4.414194
-14.237361
-5.469060
-15.213159
-6.211296
-12.258035
-8.049551
-8.820540
-9.249464
-7.306870
-12.137043
-8.022299
-10.577207
-7.121180
-6.605015
-6.734906
-10.923247
-11.764882
-3.867897
-7.215151
-11.825139
-13.529470
-4.831140
-7.341040
-6.872773
-13.564648
-1.407926
-14.420764
-1.024253
-13.705039
-1.813185
-11.367155
-3.902655
-11.023648
-5.345805
-9.781766
-5.260333
-11.563825
-5.387505
-17.273535
-4.542138
-17.812113
-5.947757
-19.503787
-8.060950
-15.302187
-13.232216
-6.627456
-7.509183
-11.313541
-5.522138
-10.872233
-3.182739
-11.227185
-1.717588
-10.449253
-1.492615
-7.532620
-1.292835
-7.775269
-2.276951
-10.361821
-4.569917
-14.991368
-5.317967
-15.937773
-6.088848
-15.608480
-7.831332
-13.894738
-10.054540
-14.678077
-13.019280
-6.328134
-5.936470
2.216869
4.075514
-4.970230
-6.951945
0.545950
-0.098764
-2.975374
-7.272129
0.431287
-7.209772
2.117183
-4.446989
-1.828675
-1.459946
-3.835659
-0.189167
-5.143988
-0.852071
-4.919259
-0.979210
-7.029490
-0.470833
-7.627816
0.548156
-6.363230
2.047085
-8.042998
3.159169
-7.508910
3.885886
-4.339176
6.461301
-2.092544
5.406015
-2.379466
4.285869
-2.951146
4.239395
-2.854328
1.786865
-1.826596
0.957751
0.734680
-0.678613
0.988326
-2.503001
0.679365
-9.415149
-8.300552
-4.345072
-0.328896
-9.227346
-9.467447
-9.059967
-0.541652
-9.283587
-15.653592
-11.052858
3.541243
-6.541502
-16.353732
-11.100120
-3.093966
-5.443313
-14.923769
-11.641337
-7.394577
-7.396927
0.349041
-0.492259
-6.176471
-8.444859
1.392840
-0.550168
0.359681
2.842969
-5.032917
-6.299180
-3.964562
3.943445
4.355417
1.756401
-4.658433
1.915151
-4.337655
1.238949
1.452249
1.928646
-2.731815
1.960454
-2.202895
1.021983
-2.765462
0.875510
1.112553
0.551486
2.886011
-0.010097
0.044214
-1.458792
3.792074
-1.545165
3.211270
-2.084184
-0.516278
-3.303035
-1.336092
-6.951291
-0.477957
-9.743991
-0.616925
-7.835794
-0.804026
-0.896021
-0.831663
-4.284956
-0.463452
-1.758681
-0.539117
0.023268
-1.092529
-2.887258
-2.821860
-5.686604
-3.795769
-7.368438
-4.182363
-10.080250
-3.385785
-4.693179
-4.230760
-10.737255
-12.685606
-12.290859
-3.253125
-6.316740
-6.405951
-7.878441
-9.923149
-11.994088
-3.024129
-6.653730
-0.229146
-4.234998
-10.187348
-7.102552
-0.264654
0.554628
-14.780090
-6.932419
-18.188778
-16.528227
-11.846179
-7.172492
-19.443628
-22.169129
-11.867630
-7.534896
-20.886776
-20.547176
-12.033027
-7.976002
-20.213704
-20.608045
-10.917371
-8.945786
-21.568163
-15.362423
-11.947414
-8.573195
-18.444281
-7.074690
-10.510056
-6.545118
-10.124587
-5.599362
-9.400958
-7.253445
-7.306024
-5.732103
-6.451560
-6.596176
-6.503770
-6.805371
0.295776
-5.018140
2.663591
-7.333446
3.097907
-2.480549
2.558527
-3.952659
0.582914
-0.956198
1.109773
-0.466935
5.812170
0.303664
12.144201
0.852930
6.932873
0.222411
1.484624
-0.716828
-1.347551
-0.070224
-3.138691
5.361562
-3.039768
1.163659
-5.986122
-3.278133
-6.053188
-6.333471
-5.657699
-5.178588
-5.982923
-8.202977
-7.176635
-6.015495
-3.349649
-9.764942
-0.464770
-9.298434
-0.545724
-10.380914
0.389377
1.341806
3.824302
-9.866613
-15.377324
-15.337890
4.665990
-13.720666
5.278787
-11.603176
5.865641
-11.006710
4.723444
5.726701
-6.920220
-11.766326
-10.312304
-11.395032
-0.956071
-0.635859
0.016082
-1.257596
-2.006520
-1.162388
-3.227432
-2.859350
-3.818907
-1.051694
-2.043263
-2.798146
-5.155404
-3.385268
-3.474678
-0.483536
-0.763267
-2.252199
-5.809111
-1.451032
-6.798308
-0.708708
-6.646445
-0.282902
-8.649486
0.707178
-4.404896
2.792516
-3.057188
-2.037499
-1.050971
-5.429714
0.148244
-8.510287
1.047640
-8.038711
1.805389
-17.973373
1.596025
-20.422080
1.136289
-15.250781
0.743712
-12.726074
0.501021
-11.991230
0.422107
-13.140369
-18.590747
-8.494660
-0.297185
0.939998
1.430650
-11.419712
-13.468028
-6.374528
-0.070997
-10.580941
-11.514614
-5.906068
0.214284
-6.100353
0.418230
-6.867859
1.152002
-6.281260
3.398410
-7.886752
4.130773
-9.949360
4.465911
-9.247180
4.256376
-6.863105
-7.855194
-8.750182
-8.161196
-8.126660
5.087172
-4.802609
-6.989883
-7.608550
4.790881
-4.140780
6.774246
-4.251615
11.131135
-5.040091
6.828005
-7.502989
3.226509
-8.024760
2.076527
-8.028854
1.575217
1.349000
0.731968
-11.478105
-0.228608
-11.206532
-0.030257
-9.651508
-0.075547
-11.221670
-0.920400
-13.829474
-4.702731
-13.241504
-8.311605
-9.197817
-4.163199
-11.709909
11.155161
9.755566
9.779174
8.628581
9.276741
6.818864
10.256232
6.212156
7.923812
5.343733
6.719205
3.673525
6.603671
-1.474892
3.207621
1.680824
2.122271
2.401419
-2.623177
-1.828847
-5.543465
-8.461015
1.279220
1.008483
0.930050
-6.704501
1.196390
0.141503
2.545460
-4.204175
-0.687679
-0.726662
1.236765
-0.767791
5.929407
-1.978733
0.660290
1.516898
7.784050
-5.237898
0.282767
2.635579
9.041350
-5.841204
1.080665
2.275078
5.527005
-5.098723
6.544792
-5.698276
6.577778
-8.339432
5.656646
-8.918221
4.984350
-8.335990
4.948922
-8.925555
4.482255
-7.909654
3.841729
-6.128140
3.065423
-2.812289
2.519304
-3.344086
0.188059
-3.227770
0.049799
-2.656722
0.346090
1.829436
1.051864
-3.658614
0.311675
1.640403
1.369846
-3.933229
3.591375
-4.729940
5.104541
-1.992602
4.650113
-2.290886
4.604444
-2.400789
4.120048
0.559868
3.718030
2.654056
3.408074
2.042906
3.418739
-0.366518
1.503973
-3.556895
-1.696071
-3.638295
-5.169442
-2.011860
-4.035663
-0.086469
-1.524861
0.942276
-1.807023
1.077184
-2.599696
1.475226
-5.507272
3.635079
-5.428214
1.934236
-4.461971
-4.775716
-3.538211
-1.518008
-3.771990
-3.836588
-3.224587
-1.667573
10.698087
4.418128
-1.365770
4.798463
11.704293
2.565112
2.490717
7.817001
10.518244
-0.332596
1.803652
-2.337516
-1.923920
-4.009302
-9.499135
-9.341488
-0.737898
-5.349729
-0.711070
-3.920416
-1.042933
-4.987927
-1.606301
-4.090588
-1.985709
-2.505640
-2.639376
-1.125427
-3.141145
-0.899295
-3.793845
-8.550497
-8.957214
-1.569266
-4.649608
-1.668656
-5.893952
-1.806988
-6.479861
-1.696631
-7.289101
-1.470517
-2.074281
-2.598657
0.690783
-2.278357
-12.597417
-7.917184
-4.970146
-2.049827
4.865741
1.281938
-14.074662
-6.474809
-4.574820
-2.207018
-15.025027
-2.714174
-4.119757
-3.709344
-15.572930
-0.296755
-1.739369
-7.162381
-17.269856
-16.229971
-8.767099
0.349185
-0.590911
-7.962822
-17.003266
-14.404594
-8.618821
-1.798949
3.493125
-8.925237
-17.646336
-11.226399
-7.312642
-3.494816
4.769456
3.923651
1.309036
-9.032246
-14.392778
-9.147766
4.023558
4.393547
0.089373
-2.619195
-13.842489
-7.643371
5.561568
2.832052
2.798879
3.111346
-18.825154
-20.882411
-12.701293
-5.727565
0.278420
2.132537
-18.423782
-16.352614
-14.719068
-5.405709
-3.006476
4.989809
-19.084100
-4.347798
-0.814403
2.226760
-19.236328
-3.405954
-19.649445
-2.555409
-18.871843
-2.895576
-17.296816
-4.634706
-13.992240
-6.804865
-9.008398
-8.499290
-8.767924
-10.222218
-6.786608
-9.146295
-6.455961
-5.949669
-5.800318
-14.357844
-16.873044
-3.606690
-6.475968
-13.186216
-15.340722
-1.506868
-7.407338
-8.142092
-12.571583
0.180492
-15.651487
0.934704
-10.795481
0.171188
-11.048152
-2.970610
-10.098448
-4.359777
-10.309443
-4.255294
-12.802408
-4.825292
-16.480821
-6.020197
-16.482424
-6.756270
-14.769829
-8.526834
-6.328216
-5.767834
-9.468650
-3.654878
-11.197300
-2.340433
-13.313492
-1.708947
-13.991919
-1.686282
-11.468192
-2.121550
-7.730260
-2.473793
-4.350806
-3.298618
-15.845033
-7.547172
-15.962814
-7.346553
-16.065364
-7.906512
-14.028515
-12.017941
-15.057433
-13.059860
-6.449436
-7.207820
5.702227
9.592946
-5.612715
-7.147084
3.690298
3.444175
-2.930660
-7.099287
2.942968
-7.161460
3.508633
-4.732912
0.545294