# vtk DataFile Version 1.0
vtk file 3j3q_1:MOA:b0_model1
ASCII
DATASET POLYDATA

POINTS 18214 double
2.927000 -4.349000 -33.011000
5.112000 -4.360000 -32.895000
1.387000 -4.149000 -32.016000
6.071000 -4.446000 -31.820000
-0.915000 -4.231000 -30.887000
6.235000 -4.415000 -30.899000
-8.869000 -4.436000 -29.787000
6.031000 -4.415000 -29.899000
-9.504000 -4.615000 -28.926000
5.897000 -4.344000 -28.870000
-14.079000 -4.408000 -27.804000
-12.898000 -4.510000 -27.957000
-12.086000 -4.298000 -27.819000
5.623000 -4.298000 -27.858000
-14.589000 -4.474000 -26.722000
5.545000 -4.419000 -26.970000
-14.897000 -4.308000 -25.925000
5.466000 -4.415000 -25.914000
-15.911000 -4.199000 -24.930000
5.754000 -4.515000 -24.817000
-17.528000 -4.535000 -23.671000
5.837000 -4.263000 -23.922000
-17.587000 -4.570000 -22.757000
5.262000 -4.361000 -22.904000
-17.148000 -4.324000 -21.841000
-0.694000 -4.315000 -21.847000
1.165000 -4.407000 -21.789000
3.632000 -4.503000 -21.706000
-17.091000 -4.464000 -20.855000
-1.115000 -4.313000 -21.089000
1.991000 -4.544000 -20.854000
3.478000 -4.545000 -20.828000
-17.129000 -4.315000 -19.999000
-1.951000 -4.319000 -19.951000
2.196000 -4.412000 -20.117000
3.352000 -4.401000 -19.860000
-16.829000 -4.415000 -18.996000
-3.026000 -4.165000 -19.062000
-12.176000 -4.614000 -17.875000
-4.137000 -4.301000 -17.957000
0.911000 -4.334000 -17.952000
2.267000 -4.415000 -17.742000
-11.807000 -4.529000 -17.144000
-4.403000 -4.371000 -17.017000
-0.908000 -4.416000 -16.891000
2.785000 -4.197000 -16.778000
-9.111000 -4.636000 -15.950000
-3.928000 -4.610000 -15.869000
-1.563000 -4.233000 -15.859000
2.486000 -4.508000 -15.828000
-9.191000 -4.475000 -14.828000
2.284000 -4.543000 -14.828000
-18.618000 -4.173000 -13.902000
-15.640000 -4.541000 -13.824000
-9.085000 -4.415000 -13.899000
2.421000 -4.339000 -13.702000
-19.745000 -4.549000 -12.750000
-15.474000 -4.552000 -12.732000
-8.763000 -4.469000 -13.047000
2.123000 -4.253000 -12.901000
-20.012000 -4.394000 -12.043000
-15.554000 -4.554000 -11.732000
-8.675000 -4.303000 -12.077000
-0.572000 -4.501000 -11.671000
-20.816000 -4.432000 -10.789000
-15.592000 -4.553000 -10.732000
-9.657000 -4.378000 -10.797000
-0.919000 -4.359000 -10.733000
-20.978000 -4.383000 -9.828000
-15.561000 -4.541000 -9.732000
-10.120000 -4.447000 -10.079000
-0.919000 -4.456000 -9.692000
-20.886000 -4.515000 -8.799000
-15.617000 -4.538000 -8.732000
-10.893000 -4.549000 -8.924000
-0.079000 -4.479000 -8.676000
-20.527000 -4.480000 -7.980000
-15.550000 -4.474000 -7.799000
-11.533000 -4.255000 -8.025000
0.453000 -4.515000 -7.799000
-19.632000 -4.289000 -6.956000
-15.782000 -4.518000 -6.917000
-11.571000 -4.258000 -7.005000
0.465000 -4.315000 -6.999000
-11.055000 -4.563000 -6.023000
-0.024000 -4.309000 -6.049000
-14.758000 -4.328000 -4.926000
-13.745000 -4.369000 -4.775000
-10.836000 -4.421000 -5.114000
-9.745000 -4.385000 -4.779000
-9.006000 -4.490000 -4.921000
-0.704000 -4.468000 -4.769000
-19.921000 -4.392000 -3.949000
-18.778000 -4.388000 -3.691000
-14.879000 -4.307000 -3.931000
-13.703000 -4.372000 -3.851000
-8.745000 -4.518000 -4.028000
-0.482000 -4.344000 -3.902000
-19.874000 -4.417000 -3.134000
-18.837000 -4.287000 -2.931000
-9.625000 -4.466000 -2.754000
-0.091000 -4.454000 -2.819000
-9.759000 -4.315000 -1.999000
0.385000 -4.597000 -1.914000
-9.857000 -4.442000 -0.970000
0.464000 -4.310000 -0.777000
-9.921000 -4.292000 0.101000
0.282000 -4.515000 0.201000
-9.937000 -4.301000 1.069000
0.076000 -4.249000 0.992000
-8.745000 -4.452000 2.062000
-1.016000 -4.192000 2.049000
-7.964000 -4.397000 3.034000
-2.081000 -4.154000 3.155000
-7.825000 -4.345000 3.934000
-2.904000 -4.341000 4.274000
-7.648000 -4.238000 4.971000
-2.853000 -4.380000 5.187000
-4.728000 -4.338000 6.161000
-2.027000 -4.315000 6.234000
-4.089000 -4.456000 7.030000
-1.597000 -4.501000 7.114000
13.021000 -4.326000 7.060000
15.102000 -4.624000 7.096000
-3.812000 -4.415000 7.934000
-0.011000 -4.395000 8.228000
11.946000 -4.289000 8.014000
17.322000 -4.585000 8.208000
-3.573000 -4.343000 8.857000
1.846000 -4.386000 9.280000
11.015000 -4.278000 9.054000
18.084000 -4.392000 9.219000
-2.698000 -4.374000 9.949000
2.143000 -4.370000 10.172000
10.477000 -4.264000 10.107000
19.382000 -4.555000 10.101000
-2.138000 -4.639000 11.037000
2.413000 -4.604000 11.259000
10.347000 -4.297000 10.889000
21.219000 -4.582000 11.165000
-7.002000 -4.446000 12.127000
2.521000 -4.570000 12.268000
7.204000 -4.356000 12.029000
8.187000 -4.415000 12.319000
10.331000 -4.379000 11.924000
21.327000 -4.315000 12.001000
-7.532000 -4.267000 12.947000
2.591000 -4.654000 13.197000
6.160000 -4.279000 13.052000
8.333000 -4.477000 13.109000
9.078000 -4.383000 12.997000
20.933000 -4.356000 12.883000
-7.456000 -4.305000 13.864000
19.992000 -4.177000 13.941000
-5.014000 -4.611000 15.011000
16.550000 -4.487000 15.157000
-4.667000 -4.443000 15.883000
16.083000 -4.415000 16.101000
-3.835000 -4.502000 17.068000
15.818000 -4.330000 17.204000
-3.269000 -4.595000 18.077000
15.660000 -4.369000 18.266000
-3.564000 -4.400000 19.078000
15.642000 -4.436000 18.921000
-3.959000 -4.249000 19.991000
16.033000 -4.424000 19.901000
-4.582000 -4.315000 21.069000
16.543000 -4.262000 20.958000
-4.531000 -4.359000 21.963000
16.796000 -4.610000 22.002000
-4.211000 -4.566000 22.907000
16.505000 -4.329000 23.073000
-4.584000 -4.394000 24.068000
16.075000 -4.415000 24.101000
-4.727000 -4.415000 25.101000
15.950000 -4.415000 25.101000
-5.091000 -4.291000 25.937000
16.213000 -4.301000 26.175000
-5.464000 -4.380000 27.062000
16.702000 -4.607000 27.108000
-5.478000 -4.415000 28.101000
16.449000 -4.410000 28.068000
-5.657000 -4.315000 29.001000
0.208000 -4.496000 29.126000
3.108000 -4.665000 29.109000
16.276000 -4.415000 29.101000
-5.493000 -4.415000 29.894000
-0.547000 -4.510000 30.298000
4.076000 -4.622000 30.123000
16.111000 -4.249000 30.029000
-5.614000 -4.290000 30.934000
-0.426000 -4.587000 31.065000
4.144000 -4.422000 31.256000
12.278000 -4.415000 31.221000
-5.668000 -4.355000 31.914000
0.007000 -4.487000 32.075000
4.981000 -4.541000 32.142000
11.823000 -4.398000 32.008000
-5.019000 -4.615000 33.084000
0.041000 -4.415000 33.101000
10.065000 -4.423000 33.217000
11.078000 -4.354000 32.975000
-4.533000 -4.415000 34.101000
0.000000 -4.415000 34.101000
-4.693000 -4.344000 35.133000
0.516000 -4.549000 35.103000
-5.400000 -4.335000 36.222000
1.776000 -4.377000 36.277000
-5.581000 -4.315000 37.001000
1.809000 -4.195000 37.004000
-5.556000 -4.485000 37.957000
1.051000 -4.187000 38.028000
-5.515000 -4.283000 38.990000
-0.605000 -4.487000 39.118000
-5.094000 -4.611000 40.061000
-0.888000 -4.249000 40.020000
-5.071000 -4.420000 41.172000
-1.368000 -4.344000 41.184000
-4.812000 -4.515000 42.201000
-1.295000 -4.608000 42.045000
-4.470000 -4.484000 42.961000
-1.788000 -4.340000 43.054000
0.043000 19.656000 -8.975000
2.074000 19.394000 -8.995000
-7.072000 19.637000 -7.847000
-2.596000 19.534000 -7.965000
-0.880000 19.685000 -7.932000
3.310000 19.418000 -7.923000
-7.429000 19.314000 -6.863000
-2.094000 19.496000 -7.057000
-0.950000 19.630000 -6.899000
4.179000 19.418000 -6.841000
-6.805000 19.419000 -5.730000
-2.006000 19.584000 -6.066000
-0.501000 19.518000 -5.898000
4.188000 19.751000 -5.939000
-6.516000 19.402000 -4.760000
-1.775000 19.513000 -4.996000
0.961000 19.439000 -4.731000
3.166000 19.673000 -4.904000
-5.974000 19.699000 -3.859000
-2.619000 19.641000 -3.967000
-5.792000 19.565000 0.327000
-4.112000 19.328000 0.095000
-5.858000 19.580000 1.186000
-4.007000 19.450000 1.072000
-20.406000 -4.443000 -11.419000
-20.165000 -4.480000 -7.549000
-19.298000 -4.439000 -13.427000
-19.276000 -4.284000 -6.608000
-19.238000 -4.376000 -4.251000
-19.403000 -4.194000 -2.659000
-18.077000 -4.310000 -14.081000
-18.389000 -4.448000 -6.588000
-17.208000 -4.482000 -24.199000
-17.282000 -4.301000 -22.349000
-17.217000 -4.475000 -14.382000
-17.417000 -4.401000 -6.372000
-16.487000 -4.532000 -24.694000
-16.157000 -4.347000 -18.418000
-16.424000 -4.353000 -14.563000
-16.509000 -4.555000 -6.323000
-15.344000 -4.325000 -25.426000
-15.217000 -4.315000 -18.366000
-14.418000 -4.496000 -27.536000
-14.317000 -4.415000 -18.303000
-14.294000 -4.339000 -5.158000
-14.294000 -4.371000 -3.533000
-13.437000 -4.627000 -28.150000
-13.417000 -4.515000 -18.289000
-12.487000 -4.323000 -27.790000
-12.587000 -4.414000 -18.062000
-11.479000 -4.557000 -28.095000
-11.370000 -4.326000 -16.589000
-11.238000 -4.523000 -8.352000
-11.391000 -4.338000 -6.344000
-10.351000 -4.554000 -28.292000
-10.484000 -4.369000 -16.540000
-10.333000 -4.647000 -9.560000
-10.400000 -4.358000 -4.588000
-9.300000 -4.558000 -29.200000
-9.558000 -4.395000 -16.481000
-9.311000 -4.250000 -11.256000
-9.414000 -4.466000 -5.111000
-9.301000 -4.473000 -3.378000
-9.331000 -4.363000 1.659000
-8.368000 -4.444000 -30.528000
-8.290000 -4.548000 2.522000
-7.484000 -4.385000 -30.622000
-7.285000 -4.246000 5.414000
-7.184000 -4.601000 12.486000
-7.253000 -4.233000 14.294000
-6.389000 -4.353000 -30.253000
-6.484000 -4.318000 5.429000
-6.306000 -4.345000 11.756000
-6.460000 -4.282000 14.741000
-5.246000 -4.451000 -30.213000
-5.507000 -4.370000 5.643000
-5.246000 -4.339000 11.567000
-5.550000 -4.474000 14.875000
-5.327000 -4.624000 26.501000
-5.367000 -4.231000 32.721000
-5.220000 -4.419000 35.935000
-5.327000 -4.289000 39.622000
-4.217000 -4.315000 -30.190000
-4.326000 -4.501000 -17.618000
-4.311000 -4.349000 -16.479000
-4.333000 -4.415000 6.496000
-4.150000 -4.393000 11.608000
-4.435000 -4.186000 16.528000
-4.310000 -4.582000 20.616000
-4.366000 -4.296000 22.463000
-4.324000 -4.641000 23.581000
-4.126000 -4.406000 43.249000
-3.317000 -4.415000 -30.325000
-3.541000 -4.331000 -18.543000
-3.377000 -4.442000 -15.154000
-3.343000 -4.298000 9.336000
-3.150000 -4.433000 11.746000
-3.394000 -4.395000 17.784000
-3.326000 -4.648000 18.643000
-3.317000 -4.444000 43.583000
-2.266000 -4.488000 -30.712000
-2.449000 -4.453000 -19.558000
-2.326000 -4.626000 -15.143000
-2.485000 -4.373000 3.438000
-2.385000 -4.336000 5.779000
[...]
POINT_DATA 18214
SCALARS Potential double
LOOKUP_TABLE default
-2.517729
-7.571623
0.170090
-11.370904
-5.018898
-11.613320
-5.459834
-9.513682
-4.454785
-9.056193
1.360957
1.603570
1.948927
-9.900713
0.872899
-12.228278
0.382287
-11.075862
0.204285
-10.883431
2.129464
-10.325775
0.964903
-7.977894
2.521407
-3.728526
-1.292861
-2.698432
3.365551
-5.197639
-1.017772
-2.126844
4.054384
-3.957885
-1.284729
-1.406283
4.143969
-0.548330
7.593562
1.525005
-1.756547
-1.628708
8.113897
2.475663
-2.475482
-1.503962
2.466893
4.010690
-1.871199
-2.851648
-0.251708
-5.469003
3.048451
10.298749
-1.722872
-9.196361
3.825426
9.992065
-2.100678
-10.136017
4.797381
9.162596
-1.151266
-3.982613
6.867715
8.557448
-0.455011
-3.403199
5.511639
8.382634
1.047628
-2.376127
5.367454
7.326065
2.757430
1.490770
4.886156
5.564044
3.526851
-1.947818
4.073147
2.173714
3.207260
-2.982132
1.906827
-2.585378
1.803436
2.326182
1.470363
-0.009741
-1.266577
-0.625290
-1.787967
-2.402006
1.638162
1.631184
-1.210242
0.342521
-2.132542
-2.599518
-0.038912
0.845158
-0.096061
1.042668
-0.356451
1.478606
0.488180
1.723504
1.412498
1.962371
1.214360
2.574224
0.784317
4.780940
0.702945
5.359761
0.500758
7.457592
4.034637
14.961479
4.704311
11.234409
2.768695
-2.212507
5.323968
10.802407
4.100424
-8.356631
6.533922
5.928703
2.781643
-7.152132
7.302100
5.474576
3.272004
-8.253180
7.891503
5.737568
2.795349
-12.519908
11.259043
3.653515
5.677897
3.811141
1.796634
-13.043545
10.029168
2.425720
5.548037
2.501053
2.131432
-13.294268
8.393781
-14.555248
6.718398
-10.172132
5.147972
-8.459977
2.671428
-8.086271
0.804407
-9.605416
1.424550
-9.740968
1.418665
-8.605566
0.691503
-7.578148
0.214392
-7.006455
-0.634576
-6.016291
-0.015786
-5.619474
2.376735
-5.379455
3.986838
-4.737049
-0.737470
-4.048043
-2.797017
-3.159624
-5.763940
-0.514729
-0.178913
-4.265291
-5.393742
-1.544321
-1.802631
-5.137082
-2.781907
-2.293585
-3.480781
0.786515
-0.242069
-3.408103
-5.449805
1.390661
2.115892
-4.229322
7.340938
5.836752
2.330850
-3.323864
2.898845
-4.403898
2.753190
-4.805450
3.011083
-3.586304
3.400856
-1.582388
4.087751
3.313809
5.270456
5.605909
7.161760
6.866527
7.866876
8.426606
8.448540
10.753972
-13.271444
-11.679936
-4.007392
-12.438079
-13.281318
-13.385474
-2.120000
-9.287704
-10.618634
-14.579529
-1.240912
-8.774195
-6.847911
-13.915472
-1.523304
-5.737337
-4.791830
-10.701622
-1.710185
-3.554876
-0.398523
-1.232415
-0.102673
-1.121569
6.849219
4.139512
3.032908
4.289364
-1.687151
-2.652196
4.417365
3.150966
2.338638
1.558378
6.618461
1.263005
1.218856
5.116393
8.462207
0.673632
0.055707
5.872288
1.186385
7.327288
2.477160
1.770448
1.113748
7.471376
2.307488
7.157717
0.298526
6.901546
3.090958
2.570557
-3.037071
5.081256
1.981679
0.836481
-5.913743
3.771395
-1.310525
-0.444136
-0.316803
1.324456
-5.560831
1.000061
-6.063224
1.100493
10.211880
9.028163
-6.443041
2.449383
9.875818
9.384330
-5.740040
3.602694
8.793496
7.563125
0.582809
1.304769
2.878490
4.440369
-6.354482
1.857888
2.841863
4.479387
9.441807
3.878502
0.785850
0.113988
-1.292437
7.856577
-7.149077
0.115822
2.610636
7.299941
8.577578
1.510775
0.409560
11.987730
-8.374939
-2.603096
-0.848026
6.060969
12.173697
6.986396
7.766414
14.981054
-5.477631
-5.329914
-3.876798
4.251695
12.248934
6.430744
7.663505
8.063264
-2.046451
-2.813819
-2.121038
-5.278432
1.765299
-1.697322
0.691493
2.471496
12.112123
-1.115555
-2.279089
1.755560
-0.259510
-1.719954
-1.924707
-9.132664
7.200016
-0.421599
-4.693791
-0.456546
-1.194334
-1.175558
-1.459368
-10.839247
6.282347
-0.193659
-5.069631
-2.820437
-2.749748
-1.298527
-1.715111
-2.322389
2.923280
-0.097872
-3.057646
-3.533564
4.380150
-0.448400
-5.795827
-6.298237
4.722279
-4.054873
-9.620884
-9.306512
-11.062712
-9.142755
4.851631
-4.239897
5.980032
-0.775703
5.135926
2.327742
2.220138
3.495073
1.794905
4.873146
2.760834
8.653852
2.977336
2.273076
3.640948
0.833067
1.334212
-1.327015
-0.517787
-3.873307
-4.550981
-8.648838
-8.781493
-4.604695
-7.377252
-9.746896
-6.928501
-6.909550
-4.458128
-3.263184
-7.739091
-13.461865
-6.891015
-16.001548
-7.347661
-15.547500
-11.427536
-15.081042
-4.008164
-2.424852
-1.800201
-1.755180
-4.387484
-1.654511
-0.682103
-0.421717
-7.801474
-1.655514
-1.163442
-0.872147
-11.026610
-2.540426
-11.141587
-3.596946
-13.351096
-6.456342
-10.709758
-5.743114
-10.646401
-6.365393
-12.509251
-8.208869
-14.334895
-11.406625
1.547201
0.824236
1.658494
1.134251
2.802862
-0.075020
-1.287401
0.248538
3.124274
-0.569901
-5.621238
2.552620
3.245430
-2.583532
-2.758559
2.672347
-6.005835
4.053951
3.858946
3.051270
-4.635236
4.134767
-2.175420
-6.089648
-9.242931
-2.073154
-2.840479
-6.321286
-6.738772
-3.216298
-6.450558
-3.807099
-6.866188
-3.348366
-5.953579
-3.550283
-6.311216
-4.065671
-7.744225
-2.764546
-6.948943
-2.136440
-7.349603
0.030680
-7.565320
1.534469
-5.100658
2.363967
-3.189461
1.497207
-2.159505
0.069703
-2.830341
-1.489347
-3.400851
-0.019223
-2.901749
-7.813826
-7.578266
-0.416208
-2.394219
-6.301232
-7.829130
-6.620321
-5.989048
-1.268918
-3.082130
-6.992135
-5.448805
-4.315248
-7.657573
-5.155407
-9.886135
-6.396348
-14.592727
-6.354122
-13.010712
-2.452441
-16.467131
-3.312691
-17.906506
-3.498913
-11.730865
-4.433273
-9.425714
-4.388055
-6.644768
-3.946530
-5.964767
-4.672051
7.403921
3.357288
0.433698
2.310282
-0.739103
1.833580
-1.551007
1.629653
-1.529105
-2.271026
-6.375831
-8.365326
0.312689
-3.879872
-2.470245
-2.932004
1.818611
-6.844412
1.513282
-7.011129
0.601244
-4.812386
-0.936185
-2.904526
-0.856086
-1.673361
-0.332525
-1.148094
-1.152857
0.875654
0.028024
-0.825220
-1.396906
1.048795
0.110100
-0.055859
-1.589905
-1.123965
-0.518081
-1.534591
-0.169128
-0.737085
0.634258
-1.117155
0.319100
-1.999438
-0.003967
-3.778711
0.096373
-1.830479
0.153993
-1.141538
0.413474
0.956183
0.947844
-0.174036
-0.714401
0.229339
-2.241326
1.340287
-0.273609
4.232624
6.962485
5.415794
7.352993
6.269929
4.335031
7.883758
6.172471
4.122000
3.189786
3.317947
5.107058
4.788203
-6.920005
-7.104635
3.144026
2.971073
-6.350257
-5.316087
-5.813382
-1.276807
-0.291987
2.171460
-4.146662
2.002107
-5.275630
2.101190
-5.942586
0.276764
-4.793111
-2.050087
-0.986773
-1.450193
-2.482606
-3.374850
-0.884766
-0.637892
-0.265564
-5.547777
-4.483480
-5.748123
-2.504888
-1.407418
-1.189524
-5.863791
-9.034158
-10.178251
-8.822338
-11.556648
-7.010021
-12.143948
-5.574728
-9.764373
-5.503534
-3.915880
-4.090306
-6.376798
-5.842462
-4.546708
-4.540957
-4.659357
-5.688302
-6.101544
-4.026679
-4.129385
-6.318733
-8.730133
-4.336468
-3.196894
-6.179130
-9.980114
-5.232073
-3.509784
-8.164002
-9.178916
-5.003412
-2.878039
-6.274346
-5.387218
-5.700453
-2.390693
-4.644310
-5.400358
-7.163438
-2.579387
-3.927976
-5.911148
-11.955596
-5.015783
-6.398653
-3.092207
-3.695262
-5.616906
-13.628220
-6.988958
-4.769382
-2.411236
-2.698735
-5.967026
-13.792631
-11.082769
-2.762901
-3.803701
-2.869547
-3.616174
-2.176977
-3.648482
-2.294015
-2.735099
-1.510322
-5.998543
3.309811
-8.454915
2.921883
-11.469089
-4.287162
-11.852436
-6.155318
-9.448035
-4.945971
-8.328334
-5.425228
-8.485127
-0.854766
-9.165753
1.498391
-9.262995
-1.765744
-10.659192
0.797472
-9.407205
2.136611
-7.366949
4.417877
-2.689792
-0.861537
-4.158113
5.475934
-2.543820
-0.249682
-3.124846
5.316515
-0.224271
0.246808
-1.876659
3.243607
3.530555
0.222115
-0.183674
2.481089
4.044745
7.010582
3.581773
0.979274
0.072695
8.774605
3.470178
1.023944
-0.003898
9.871391
3.121364
1.843406
-0.735177
4.887313
8.866608
9.780486
6.546950
4.593624
3.222858
3.006405
-3.325724
4.465503
4.863135
3.487305
11.736678
-0.227776
-5.453365
4.817515
13.047376
0.125866
-8.278961
5.803412
4.317367
-0.980266
-4.770089
5.667457
1.316059
0.204608
0.012348
5.080715
0.706196
4.499668
4.105191
3.365216
4.530535
4.718383
4.877815
3.998980
4.169557
4.381267
2.156211
3.088611
-0.311885
3.104085
2.484010
2.787080
0.124445
1.602170
-0.424376
-0.142740
0.384247
0.009643
-1.507700
0.576715
0.640503
-1.145708
-1.922989
1.374008
0.863317
0.495039
1.077668
0.541956
1.361774
0.538750
1.486084
0.836859
1.778516
0.829296
1.191337
0.217442
1.354080
-0.114361
3.220294
-0.703777
5.032615
-1.769074
7.874503
-1.902411
10.216210
4.028033
8.348568
4.280026
7.128670
4.647211
-8.191017
4.953574
5.074786
2.767256
-6.311164
6.345472
5.389939
9.676743
11.901521
6.067365
3.543597
2.936443
-7.146745
7.601034
6.830205
10.127384
-11.072766
13.745219
4.754072
7.479989
-11.475597
9.462176
-10.569456
9.605219
-13.544672
11.111206
-9.785838
6.667656
-8.136439
3.316636
-8.937370
2.939702
-8.280074
3.292606
-8.006045
2.458661
-8.070548
1.699868
-7.844917
1.518354
-6.453876
1.420174
-4.671146
2.781003
-5.861776
5.310920
-6.348870
2.544497
-4.231515
-0.823368
-3.522015
-3.572384
-2.530192
-7.998605
-3.902603
-6.773617
0.159551
1.227132
-4.916224
-2.739414
-1.030335
5.054458
0.070274
-0.240280
-3.805896
2.028708
-2.112302
2.144709
-0.159927
2.058022
-5.089772
3.039733
-4.064759
3.265341
-3.488940
3.445312
-3.526790
3.288317
-1.971640
3.511843
-0.163737
3.959372
3.845866
4.867128
5.273558
8.000806
7.045568
7.465197
7.513949
-14.156550
-14.198991
-14.140611
-12.736746
-12.367512
-15.098289
-9.764932
-14.378427
-2.246025
-4.254500
-2.289889
-3.475694
6.585177
5.012481
4.020466
4.333652
1.879253
-1.985113
3.642563
-2.851369
4.483284
-2.823906
5.139007
-0.308667
0.037527
3.032453
7.594921
-0.750667
-1.785862
5.056904
11.487749
1.043659
-0.426726
6.406286
12.612789
3.533473
2.198204
1.379473
5.131002
7.513914
8.730461
2.680169
2.597613
1.239519
7.648439
9.613321
1.560748
2.766132
2.444570
1.157138
1.966309
7.081813
0.957337
0.726293
-2.377467
5.649017
-1.274399
0.514709
-6.462960
2.513608
-0.677883
0.897649
-5.897564
0.434875
-4.792275
-2.088082
14.134227
10.754090
-5.005091
1.072327
8.738772
10.081746
-8.020396
3.309463
8.318694
4.591917
5.652309
1.255001
3.433055
8.181447
-8.509596
3.454071
3.304962
3.193221
1.850701
6.996485
-7.684369
3.990364
6.864981
8.033098
-6.582677
-2.411167
7.553267
8.574073
-5.441980
-3.262828
0.378697
2.853894
9.957678
5.545169
-2.947348
-2.015905
0.556754
-0.204988
6.000571
0.108132
1.223041
1.298095
8.346049
2.649463
-0.046809
-1.317268
-0.219870
-2.770960
1.567923
1.582213
5.638027
0.593258
-3.700965
0.577547
0.485977
-9.090075
5.418551
2.398861
-3.300637
-2.101636
-1.182062
-7.545103
4.620961
-2.019822
-2.954417
0.326280
5.988981
-2.218322
-4.936171
0.532804
5.246109
-2.246986
-7.902866
-7.632576
-10.669025
-4.615535
-3.707285
0.137752
9.892006
8.997238
6.403763
-1.621118
10.749389
1.174302
7.253152
2.988644
4.285916
3.316234
2.313221
1.738787
2.635912
1.594587
6.553928
-0.271067
6.231501
0.241129
2.801100
-1.316093
-1.000929
-3.990672
-4.293835
-4.660534
-3.134025
-4.911066
-7.422974
-10.222532
-7.152109
-13.188514
-5.577627
-15.828700
-6.813145
-15.139115
-8.691167
-12.127913
-2.495692
-2.564141
-3.671284
-2.556152
-14.535389
-12.927910
-13.558774
-7.985560
-14.199564
-9.285660
-14.352714
-11.992709
-15.407706
-13.256020
2.508118
1.278428
0.874895
-0.747450
1.129762
0.803932
0.320453
0.787885
3.177687
-0.376074
-1.337311
0.528547
-0.079200
5.065799
3.759371
-1.215762
-1.662610
0.878019
-3.900341
7.379245
4.899524
-2.065174
-2.128733
2.057055
-4.039171
3.105484
-1.341237
6.340824
-1.655237
0.280053
-1.988415
-2.731675
-2.241421
-7.660170
-8.289062
-4.016936
-5.941335
-2.836373
-7.132238
-2.132115
-6.613627
-1.152880
-7.927521
-0.802874
-7.272232
-1.703070
-5.342609
-1.677458
-4.100873
-1.713191
-2.654496
-3.414142
-1.641969
-3.085866
-1.261804
-2.656658
-2.706829
-2.466914
-3.336866
-2.574484
-2.501138
-4.100535
-6.117531
-5.362918
-5.566819
-2.624929
-7.143673
-6.626928
-9.736419
-7.858402
-10.365159
-10.416739
-8.850891
-9.666356
-13.461507
-7.530417
-14.205506
-6.389419
-11.585689
-5.083207
-10.323043
-4.343982
-10.158122
-4.663781
-8.398478
-4.377367
-7.625366
-4.586457
2.637842
0.915235
1.397447
-0.765901
-12.740067
-13.284997
-0.231235
-3.353591
-8.837999
-9.001471
-0.143311
-4.214863
0.789303
-6.688532
0.112727
-7.372637
-1.545510
-5.245048
-2.201423
-1.328813
-1.305576
-0.422224
-0.410756
-0.447103
-0.620753
-0.765780
-0.683102
0.785417
-0.214192
-0.082992
-1.018565
0.889872
0.266662
1.173757
-1.250536
-0.081356
-0.599894
-0.222255
0.301225
-0.397122
1.129842
-0.787099
1.108867
-1.670402
0.898966
-3.996741
1.070908
-2.265762
0.859196
-1.174356
1.533790
-0.611312
-1.396901
-0.075027
-3.320065
0.630134
-2.665920
2.742225
0.365935
4.557441
2.394923
5.072399
3.407902
4.046411
8.042798
5.757682
2.966908
2.548192
10.622212
4.283833
-0.507333
-1.055600
-0.086828
-0.847019
6.009990
4.893775
14.826130
12.676138
8.641417
5.375622
-6.616345
-6.482779
2.497118
2.056877
5.623338
5.774924
0.608980
-2.910078
0.189261
2.366496
1.883077
2.865815
0.317240
3.564423
-0.610180
2.739946
-1.142453
-0.946951
-0.051340
-3.370886
-0.944471
-4.483098
-4.298762
-4.856917
-9.289950
-7.300366
-9.344817
-9.095376
-9.329432
-11.205553
-7.809766
-12.046126
-6.886325
-2.308622
-3.082580
-6.656451
-5.821034
-3.368328
-4.017023
-5.584330
-6.564611
-6.830910
-4.154586
-4.515685
-5.365261
-8.849274
-4.246247
-3.523888
-6.586784
-9.933390
-4.762792
-3.450127
-7.628992
-8.758033
-6.012260
-2.946215
-6.082669
-6.114558
-6.559343
-4.555177
-4.942205
-6.839985
-6.761286
-4.893881
-4.168009
-8.948296
-8.434871
-4.216449
-4.985970
-5.932943
-4.060477
-6.356006
-12.547183
-6.412114
-3.670902
-4.064205
-12.868279
-12.431672
-1.658906
-2.938917
-1.939014
-3.011911
-1.858452
-3.219275
-2.309130
-2.535923
0.343426
0.467894
0.445846
-0.303908
0.267796
-0.534997
0.097739
-0.204760
-2.148592
-5.791894
-0.334970
-7.169384
1.965487
-10.874417
-2.780395
-11.201066
-7.595692
-7.237578
-5.711307
-8.319277
-4.609403
-7.209928
-3.527032
-7.213948
-1.926088
-7.228987
1.604556
-8.129582
-1.656690
-7.496852
-0.250938
-4.991127
3.663103
-5.585903
6.149436
-3.762554
8.466285
1.246083
1.878068
-2.606921
7.803026
3.285832
1.987429
-1.300664
2.659254
5.910744
2.803690
0.602669
0.131689
2.433745
4.138388
1.870410
-0.783013
5.358355
8.908899
2.058632
2.330438
1.382827
0.679231
6.479663
9.137522
2.373376
3.332159
3.338952
8.729111
6.053585
3.542359
12.111701
10.418263
1.509104
3.737964
-0.388938
3.751042
15.100111
3.018554
3.659940
6.306393
-0.881187
3.158558
15.018558
2.566286
-6.674133
4.113353
2.562225
3.116573
4.562976
0.929798
-2.659545
3.842182
0.472512
3.910553
1.836829
4.616424
2.812151
3.764156
1.711672
3.387167
0.330706
3.303902
0.443448
2.885560
0.433963
1.151100
0.454363
2.250355
0.248805
0.586196
1.689747
2.312436
-0.439919
0.969195
-0.019000
0.894910
1.720842
0.872051
1.339580
0.584950
1.220616
-0.134233
0.265511
-0.542771
-1.526079
-0.822694
-1.706826
-2.036773
2.958599
-4.676690
4.751799
-5.797498
5.866450
-5.421543
5.738662
2.589688
4.995160
4.082445
-3.058433
5.042370
2.994417
8.204478
10.891310
1.820609
-5.516738
-4.989556
-6.446236
5.762405
3.154976
5.777749
-6.490066
7.212946
-6.279046
7.908820
-6.555696
8.282729
-8.326378
10.914696
-13.840630
7.022750
-12.238047
5.410873
-9.268750
3.159541
-8.658853
2.794094
-7.323393
2.182314
-6.893300
2.576536
-7.136889
2.255472
-7.031223
2.133006
-6.170171
2.361031
-4.370402
2.336852
-4.305666
2.607597
-4.172996
-0.003280
-2.017129
-2.048312
-1.286936
-4.812081
-0.863650
-7.826652
-1.556276
-5.914436
-1.805464
-1.474884
2.288419
0.431993
0.932864
2.261326
2.159317
4.563408
-4.208416
5.781051
-2.376133
4.507826
-0.761955
4.401789
0.616802
3.732821
1.870191
4.158854
3.557326
4.988531
5.664666
6.050870
7.311120
6.779502
7.674362
0.291562
0.160204
0.096306
0.139647
0.732697
0.009802
0.277163
-0.417344
3.400751
3.176655
3.494977
4.230259
3.617073
4.113859
2.248213
4.048823
3.770811
3.920856
3.021727
2.314135
3.787011
-1.457895
2.542558
-1.865944
9.127561
3.754279
0.760324
-0.764052
2.272497
0.171393
-1.630937
4.934814
10.405243
1.525805
-0.323094
6.464359
14.904463
1.356460
2.931816
11.570962
12.498919
0.259190
4.161472
10.187321
3.468308
0.403143
1.254887
7.857832
1.840718
0.329406
-0.667267
5.237013
0.268835
0.330209
-3.151523
3.382863
2.445411
0.953481
-4.470434
0.265668
-3.795691
-5.300242
-4.927788
-4.154640
-5.579593
-0.713322
7.594748
9.960456
-8.721329
5.416009
6.217739
4.178147
2.491818
2.462079
2.533352
0.865078
4.185090
4.568752
-9.306672
4.500247
1.020656
3.257789
2.311944
3.226765
5.139516
6.531679
-8.772103
5.330581
4.869516
2.830985
2.819912
6.917836
-6.188331
0.235681
7.408290
7.758247
-5.962686
0.484126
2.579054
2.514185
4.618262
5.445262
-5.077421
1.184472
3.564787
1.310641
2.081205
0.359703
0.944440
0.580009
4.367910
4.222413
-1.786225
2.700169
2.790728
-0.902307
0.963822
0.252358
1.568798
1.326314
4.065760
2.593062
1.747626
-7.181790
3.285760
-4.547625
-1.248230
0.291548
-1.221034
-4.974993
2.075564
-2.311912
-2.865433
1.446589
2.214525
-2.338832
4.142913
1.628690
-4.553558
1.810060
6.710762
2.897759
7.355514
-0.743864
-9.348819
-6.795214
-7.637365
-7.926816
-8.019057
-6.164402
-5.142611
1.717338
8.761769
4.859553
9.151655
-0.279057
2.078846
-0.165345
10.166347
1.348483
5.860368
2.844182
2.340658
3.985452
1.686871
3.196712
2.605005
1.318778
5.520796
0.618096
6.593113
0.181566
3.235795
-1.124790
-0.493860
-1.959439
-3.783381
-7.009835
-4.905541
-11.544892
-7.346308
-7.477729
-4.573723
-12.669957
-6.373946
-13.887991
-5.539940
-10.997941
2.382064
1.409711
0.626410
-0.350664
0.423662
0.317883
1.382250
1.352634
5.450314
4.855230
2.093757
-1.471893
-1.054247
0.141366
5.047733
5.191697
3.460529
-2.385749
-1.600535
0.555165
-0.859223
7.874520
5.922302
1.560786
-2.289350
2.556841
-0.850975
1.575840
-1.216756
1.151845
-1.651753
-3.419846
-1.702129
-6.438841
-2.614235
-5.090332
-9.482007
-3.470696
-9.578916
-1.629355
-6.245011
-2.209483
-5.850569
-2.261276
-3.602781
-3.058427
-2.648913
-3.039360
-1.985953
-4.251544
-1.612855
-3.617439
-1.587115
-2.512832
-1.987660
-2.847046
-2.480909
-4.125949
-8.440673
-6.865236
-4.892436
-3.625998
-4.948600
-5.753531
-6.978811
-9.337127
-10.042159
-11.057245
-10.399888
-11.996818
-11.588276
-13.618395
-11.419314
-12.172503
-11.475500
-9.667525
-10.150652
-7.896917
-9.374827
-6.276477
-7.434599
-5.873836
-8.238923
-5.593613
-6.284362
-5.492166
2.952322
-0.556214
2.548089
-2.914200
-12.517758
-12.187552
2.065393
-9.104906
1.762464
-5.533264
1.516911
-4.371254
0.715853
-4.981474
0.054466
-2.528112
-0.247050
0.410662
-0.433571
2.219977
0.916272
0.349289
-0.161532
1.203075
0.832115
0.806340
-0.050907
2.443117
-0.110519
0.402899
0.163590
3.633357
-0.492831
1.264839
-0.316313
-0.128844
-0.207880
-0.833085
0.496562
-1.296090
1.719313
-1.047789
1.520294
0.007400
1.856142
-0.406165
1.706367
-1.034513
0.451742
-1.318960
-1.261168
-1.128380
-2.993233
0.110485
-2.829401
1.856044
0.267199
3.245139
1.440743
3.614535
2.819219
3.244023
5.529524
8.153152
9.415774
4.492199
-2.727744
-1.125782
-0.921230
-1.172061
-0.081664
-0.832945
-0.602676
-0.426870
4.651580
4.650661
3.183066
4.563949
1.775731
9.188416
0.476304
10.482530
1.263454
4.831904
3.866989
3.427701
9.371679
6.555487
10.556485
4.208590
2.758299
1.806157
11.104579
1.550393
-3.354574
1.918641
4.873828
2.588847
3.423942
4.669041
1.744417
4.334017
0.635693
0.740447
-1.168798
-2.773419
-2.510678
-5.983128
-8.128652
-4.494785
-11.877349
-4.097423
-9.981754
-8.185319
-9.451821
-10.741677
-9.607945
-11.063934
-7.746946
-1.527960
-1.890138
-5.301737
-7.285575
-2.901280
-2.798870
-4.497855
-8.027224
-5.705515
-3.050135
-3.852733
-6.674129
-6.596657
-3.413841
-3.164592
-3.032515
-3.297477
-7.236583
-7.762851
-4.308045
-3.536803
-2.595362
-3.485731
-6.416417
-6.930740
-4.938257
-4.554230
-5.436811
-7.402568
-5.738586
-5.937958
-4.492438
-7.684057
-6.082816
-7.138470
-3.626060
-8.798006
-6.824625
-5.797166
-2.285445
-7.301804
-4.115921
-6.766588
-5.241944
-3.613521
-2.685049
-2.751098
-2.310232
-2.905288
-2.215754
-2.010150
1.657548
1.667349
1.470662
2.249897
1.129519
2.936360
0.502690
2.357762
0.409386
0.980288
0.555890
-0.147358
0.550218
-0.611677
0.218411
-0.883856
0.047225
-0.736417
-3.435568
-1.933313
-4.667974
-2.292219
-8.323793
-2.464361
-8.316280
-7.528582
-3.476936
-5.042083
-3.488380
-7.787151
-4.006098
-8.603552
-5.502439
-6.249920
-7.592935
-8.397480
-2.764737