# vtk DataFile Version 1.0
vtk file 3j3y_1:FOA:56_model1
ASCII
DATASET POLYDATA

POINTS 18296 double
-14.512000 -15.012000 1.236000
-10.782000 -15.187000 1.149000
-15.000000 -14.906000 1.951000
-10.472000 -15.195000 2.075000
-15.385000 -15.095000 2.872000
-10.597000 -15.095000 2.975000
-19.658000 -15.163000 3.975000
-17.784000 -15.167000 4.115000
-15.800000 -15.022000 3.853000
-10.521000 -15.100000 4.046000
-20.903000 -15.172000 4.940000
-10.008000 -15.102000 5.057000
-21.371000 -14.881000 5.887000
-6.662000 -15.131000 6.021000
-20.946000 -15.198000 7.010000
-5.550000 -15.262000 6.917000
-20.548000 -15.195000 8.075000
-4.479000 -15.262000 7.885000
-20.358000 -14.995000 8.875000
-3.820000 -15.262000 9.010000
-20.486000 -15.064000 9.792000
-9.909000 -15.040000 10.039000
-7.866000 -15.333000 9.966000
-3.490000 -15.095000 9.975000
-21.447000 -14.928000 11.000000
-10.292000 -15.326000 10.918000
-6.697000 -15.309000 10.934000
-3.627000 -14.928000 10.902000
-22.629000 -14.941000 12.126000
-9.648000 -15.126000 12.162000
-23.371000 -15.222000 13.213000
-9.773000 -15.195000 13.075000
-23.474000 -15.256000 14.122000
-9.853000 -14.995000 13.875000
-22.760000 -15.214000 14.987000
-10.019000 -15.015000 14.729000
-21.401000 -15.267000 16.094000
-10.353000 -15.323000 15.923000
-5.554000 -15.145000 15.967000
-2.876000 -15.211000 15.987000
-21.332000 -14.968000 17.102000
-8.892000 -15.086000 16.931000
-6.628000 -15.016000 16.977000
-2.718000 -15.100000 16.808000
-21.381000 -15.240000 17.865000
-2.584000 -14.978000 17.904000
-21.563000 -15.139000 18.904000
-2.585000 -15.054000 18.968000
-21.749000 -15.095000 19.975000
-3.271000 -15.104000 20.177000
-21.590000 -15.095000 20.877000
-3.147000 -15.180000 21.081000
-20.416000 -15.221000 21.939000
-3.385000 -15.025000 21.835000
-19.471000 -15.359000 22.952000
-5.022000 -15.046000 22.888000
-18.738000 -15.079000 24.016000
-5.615000 -15.140000 23.854000
-18.299000 -14.913000 24.787000
-12.506000 -15.024000 24.928000
-10.729000 -15.108000 24.841000
-5.681000 -14.995000 24.875000
-14.941000 -15.098000 25.927000
-13.873000 -15.088000 25.846000
-8.628000 -15.266000 25.833000
-5.936000 -15.018000 25.795000
4.372000 9.116000 -23.954000
9.638000 9.026000 -23.934000
1.529000 8.776000 -22.970000
13.538000 9.052000 -23.019000
-3.558000 8.857000 -21.995000
-2.453000 8.953000 -22.042000
1.230000 8.753000 -22.178000
15.229000 8.951000 -21.966000
-4.429000 8.961000 -20.828000
-0.769000 8.835000 -21.046000
0.274000 9.012000 -20.997000
15.541000 9.022000 -21.031000
-4.663000 8.905000 -20.025000
16.106000 8.729000 -20.147000
-4.870000 8.930000 -19.096000
17.501000 8.640000 -19.144000
-4.780000 9.096000 -17.957000
18.602000 8.709000 -18.175000
22.676000 8.832000 -17.965000
24.155000 8.876000 -17.830000
-8.399000 8.843000 -16.780000
-6.620000 9.057000 -16.882000
-5.390000 8.995000 -16.973000
25.007000 8.670000 -16.893000
-8.562000 8.873000 -15.858000
25.399000 8.804000 -16.025000
-8.476000 8.890000 -14.804000
25.410000 8.845000 -15.034000
-8.468000 8.905000 -14.025000
24.597000 9.020000 -14.035000
-8.416000 8.895000 -13.215000
12.699000 9.082000 -12.941000
14.435000 8.926000 -12.912000
24.417000 9.044000 -13.049000
-8.563000 8.956000 -12.184000
12.474000 8.989000 -12.192000
14.892000 9.081000 -11.993000
26.056000 8.664000 -11.910000
-9.493000 8.846000 -11.015000
12.555000 8.832000 -11.143000
14.405000 8.892000 -11.074000
26.242000 8.882000 -10.954000
-11.687000 9.041000 -9.987000
26.155000 8.805000 -9.925000
-11.785000 8.836000 -9.141000
26.170000 8.905000 -9.025000
-12.578000 9.110000 -8.152000
26.222000 9.059000 -7.963000
-13.865000 9.072000 -7.044000
-4.654000 8.958000 -6.807000
-2.449000 8.950000 -6.930000
25.468000 8.992000 -6.957000
-14.761000 9.083000 -5.914000
-4.921000 8.805000 -5.925000
-1.971000 8.783000 -5.959000
23.590000 8.932000 -5.772000
-15.351000 8.795000 -4.826000
-4.623000 8.883000 -5.108000
-2.554000 8.994000 -5.019000
23.307000 9.005000 -4.977000
-15.269000 8.723000 -4.056000
22.519000 9.072000 -4.038000
-14.480000 8.915000 -3.153000
20.429000 8.988000 -3.011000
-13.494000 8.813000 -2.224000
17.288000 8.778000 -1.999000
-12.983000 8.888000 -1.101000
17.153000 8.932000 -0.956000
-13.600000 8.976000 0.058000
17.449000 8.779000 0.142000
-14.484000 9.048000 1.125000
17.669000 8.770000 1.142000
-15.198000 9.026000 2.208000
17.724000 8.778000 2.142000
-15.245000 8.784000 3.101000
11.328000 8.991000 3.002000
12.486000 9.013000 3.048000
17.514000 8.875000 3.052000
-14.858000 8.886000 4.079000
9.099000 8.958000 3.940000
13.190000 8.735000 3.897000
16.401000 9.007000 4.046000
-13.450000 8.893000 5.053000
8.139000 8.949000 5.143000
14.327000 8.821000 4.920000
14.956000 9.021000 4.916000
-12.978000 8.908000 6.101000
1.475000 9.173000 6.117000
4.329000 8.968000 6.141000
8.018000 8.991000 5.988000
-12.844000 9.006000 6.998000
-7.684000 9.127000 7.102000
-5.489000 8.738000 6.964000
-0.547000 8.836000 7.140000
4.948000 8.986000 6.949000
6.437000 8.952000 7.052000
-11.832000 8.672000 7.990000
-8.814000 8.972000 8.029000
-3.830000 8.738000 8.011000
-1.367000 8.828000 8.000000
-23.161000 -15.332000 12.671000
-23.063000 -15.082000 14.656000
-22.132000 -15.262000 11.559000
-22.137000 -15.251000 15.250000
-21.109000 -15.196000 5.379000
-21.196000 -14.959000 6.553000
-20.992000 -15.274000 10.658000
-20.989000 -14.999000 21.580000
-20.155000 -14.986000 4.218000
-20.012000 -15.105000 22.242000
-19.186000 -15.249000 3.810000
-19.063000 -15.038000 23.423000
-18.392000 -15.203000 3.837000
-17.972000 -15.042000 25.183000
-17.038000 -15.036000 4.458000
-16.996000 -15.018000 25.656000
-16.306000 -15.260000 4.258000
-16.063000 -15.009000 25.832000
-15.212000 -15.106000 2.279000
-15.352000 -14.906000 25.779000
-14.264000 -15.322000 0.856000
-14.228000 -15.339000 26.081000
-13.330000 -15.206000 0.696000
-13.209000 -15.166000 25.386000
-12.330000 -15.133000 0.584000
-12.107000 -15.156000 24.680000
-11.375000 -15.124000 0.702000
-11.408000 -14.997000 24.531000
-10.159000 -14.850000 4.726000
-10.183000 -15.188000 10.245000
-10.027000 -15.122000 11.471000
-10.094000 -15.030000 15.215000
-9.986000 -15.099000 16.406000
-10.201000 -14.875000 25.323000
-9.198000 -15.024000 5.411000
-9.321000 -15.235000 9.634000
-9.342000 -15.133000 16.784000
-9.273000 -14.970000 25.521000
-8.163000 -15.095000 5.523000
-8.402000 -15.210000 9.753000
-8.146000 -15.155000 17.243000
-8.107000 -14.928000 26.314000
-7.197000 -15.042000 5.772000
-7.304000 -15.138000 10.423000
-7.227000 -15.279000 17.255000
-7.163000 -15.095000 26.465000
-6.165000 -15.024000 6.323000
-6.125000 -14.999000 11.560000
-6.166000 -15.095000 16.666000
-6.316000 -15.255000 26.202000
-5.076000 -14.928000 7.349000
-5.163000 -15.095000 11.785000
-5.118000 -15.219000 15.368000
-5.215000 -15.246000 23.104000
-4.129000 -14.928000 8.342000
-4.238000 -15.262000 11.573000
-4.234000 -15.154000 15.273000
-4.294000 -15.207000 22.607000
-3.239000 -15.208000 15.698000
-3.005000 -15.208000 19.613000
-3.196000 -15.063000 20.832000
-3.171000 -15.263000 21.543000
-15.173000 8.696000 -5.554000
-14.996000 8.837000 -3.744000
-15.016000 8.797000 1.813000
-15.160000 9.117000 3.554000
-14.260000 8.738000 -6.658000
-14.074000 9.082000 -2.650000
-14.110000 8.863000 0.719000
-14.154000 9.094000 4.529000
-13.100000 8.738000 -7.575000
-13.169000 9.136000 -1.708000
-13.149000 8.738000 -0.542000
-13.130000 9.123000 5.358000
-12.021000 8.728000 -8.407000
-12.326000 8.839000 7.757000
-11.099000 9.082000 -10.340000
-11.220000 9.063000 8.365000
-10.047000 8.754000 -10.310000
-10.263000 8.805000 8.371000
-8.978000 8.735000 -11.394000
-9.385000 8.919000 8.367000
-8.252000 8.688000 -17.197000
-8.285000 8.878000 7.384000
-7.241000 8.730000 -17.330000
-7.200000 8.880000 6.719000
-6.010000 9.092000 -16.822000
-6.202000 8.905000 6.686000
-5.223000 8.859000 -17.247000
-5.036000 9.072000 7.171000
-4.040000 8.791000 -21.540000
-4.183000 8.779000 -7.353000
-4.029000 8.968000 -4.638000
-4.268000 8.905000 7.655000
-3.074000 8.718000 -22.236000
-3.246000 8.798000 -7.451000
-3.193000 8.729000 -4.574000
-3.101000 9.072000 8.398000
-2.169000 9.004000 -21.827000
-2.171000 8.889000 -6.617000
-2.315000 8.914000 -5.435000
-2.151000 8.834000 8.408000
-1.226000 8.972000 -21.213000
-1.101000 8.726000 7.636000
-0.273000 9.141000 -20.875000
-0.260000 8.675000 6.684000
0.812000 8.867000 -21.538000
0.623000 8.823000 6.257000
1.849000 8.748000 -23.445000
1.870000 8.882000 5.885000
2.766000 8.771000 -23.558000
3.004000 9.047000 5.727000
3.872000 8.776000 -23.701000
3.952000 9.126000 5.713000
4.974000 8.784000 -24.385000
4.781000 9.084000 6.667000
5.837000 8.991000 -24.840000
5.782000 8.905000 7.274000
6.839000 8.973000 -24.611000
6.829000 8.752000 6.580000
7.737000 8.805000 -24.392000
7.595000 8.838000 6.244000
8.769000 8.905000 -24.296000
8.762000 8.969000 4.235000
9.952000 8.992000 -23.875000
9.839000 8.964000 3.662000
10.670000 8.977000 -23.717000
10.785000 8.987000 3.305000
11.670000 8.886000 -23.399000
11.751000 8.863000 2.581000
12.668000 8.883000 -23.607000
13.075000 9.006000 -13.140000
13.034000 9.035000 -10.764000
12.831000 8.983000 3.527000
13.959000 9.027000 -22.806000
13.864000 9.050000 -13.235000
13.826000 8.829000 -10.607000
13.858000 9.019000 4.721000
14.620000 9.039000 -22.395000
14.788000 9.135000 -12.488000
14.811000 9.000000 -11.591000
14.739000 8.925000 4.981000
15.776000 8.987000 -20.262000
15.735000 9.075000 4.499000
16.828000 9.052000 -19.500000
16.755000 8.692000 3.636000
17.934000 8.807000 -18.721000
17.938000 8.821000 -2.600000
19.048000 8.992000 -17.910000
18.837000 8.869000 -2.690000
19.737000 8.805000 -17.544000
19.795000 8.724000 -2.705000
20.667000 8.964000 -17.410000
20.872000 8.976000 -3.315000
21.889000 8.792000 -17.553000
21.810000 8.738000 -3.742000
23.030000 8.753000 -18.056000
22.887000 8.738000 -4.299000
23.668000 8.860000 -18.090000
23.939000 8.853000 -6.392000
24.673000 8.723000 -17.336000
24.959000 8.865000 -14.276000
24.984000 8.828000 -12.481000
24.763000 8.885000 -6.776000
[...]
POINT_DATA 18296
SCALARS Potential double
LOOKUP_TABLE default
-2.830126
-7.277808
-1.809170
-7.711042
-1.844356
-5.862417
-3.328385
-5.422874
-1.983050
-3.451244
0.877052
-3.297508
-1.480764
-0.735862
-7.777355
-0.968645
-11.051199
0.038165
-9.996359
-0.605813
-9.377464
-1.219227
-1.176555
-2.423043
-3.856023
-1.896990
-2.497778
-3.619058
-1.649801
-3.409555
-3.520077
-3.879835
-3.969700
-5.373751
-3.860807
-4.698481
-1.431771
-2.075985
-4.679915
-3.280600
-1.059491
-1.654622
-1.759185
-1.380700
0.173434
-0.745161
0.113932
-1.078951
-0.610248
-0.828849
1.503264
-2.335071
3.145436
-3.664504
1.793586
-4.942017
0.791570
-8.174306
0.275971
-1.411355
-1.675578
-11.921460
-2.012159
-2.069751
-7.235258
-13.190430
0.020509
8.065507
-3.706612
-0.989589
-0.105222
0.373394
-2.502883
1.837817
-1.634811
0.068166
-0.167258
3.416770
-1.965500
2.067288
-2.030952
-2.603799
-1.988663
-4.788489
-7.456289
-4.792100
-3.568501
-3.224284
-2.401734
-5.645437
-4.190233
-5.682210
-4.715034
-5.270485
-5.232084
-3.784721
-4.851908
10.997543
8.895052
-3.342180
-1.600197
13.599904
7.069777
-4.265609
-4.523585
11.847593
8.550972
-4.413338
-11.399873
-4.050854
-12.161932
-5.720377
-10.239438
-8.196067
-7.574337
-0.614548
0.772933
-8.902315
-3.283226
-0.638048
0.816842
-9.262175
0.200029
-0.908039
0.098279
-10.128521
1.582935
-10.538616
2.896817
-7.948472
3.392423
-6.604138
1.270347
-6.189429
-0.557577
-6.084775
-1.916382
-6.133007
-2.211460
-6.634760
-2.114100
-0.039838
-3.382129
-6.563585
-2.437601
-5.876014
-3.869165
-6.521347
-3.541856
-7.598620
-5.821631
-6.853194
-4.678425
-1.053893
-4.758198
-10.962897
-6.657031
-1.379062
0.336904
2.092620
-7.295530
-9.794998
-6.488743
-1.819831
0.954911
2.198082
-2.843106
-3.682785
-2.078891
-3.233483
-0.001328
-4.786933
-5.781911
4.602039
-1.078444
2.753223
-4.482555
1.123024
-5.335009
0.032095
-3.993002
-0.251355
-2.803205
-0.633439
-2.337406
-1.629888
-4.117503
-2.033368
-4.137501
-0.924010
-6.176919
-1.009643
-6.888191
-0.776574
-3.392108
-1.318261
-2.120676
-4.445345
-1.605328
-2.909711
-2.665695
-1.012995
-1.867573
-4.509290
-0.785767
-1.263693
-1.256574
-9.379015
-0.361339
-1.498966
-1.223544
-11.923836
-1.153161
-3.798340
-2.467794
-12.831200
-0.830391
-4.816880
-6.107901
-5.831039
-0.156877
-4.512169
-5.739814
-4.761320
-4.186158
-0.490718
-2.104230
-3.431083
-2.022584
1.959519
-2.217792
-2.185577
-6.913543
4.977782
-1.735926
-2.995178
-9.897785
2.700685
0.181172
-3.528920
-12.109116
-7.236471
-9.968991
-5.729257
-7.793016
-3.818767
-2.649797
-2.903239
-3.869649
-1.502841
-3.258748
-1.551450
-3.031803
-0.599016
-2.236567
0.632362
-0.738418
-0.182140
-0.718301
0.883548
0.258127
0.269875
-0.130060
0.995268
0.288452
1.017340
0.431731
1.619615
0.039821
2.078096
-0.030119
1.713023
-0.935472
0.561510
-3.677817
-1.084558
-3.307637
-3.617841
-1.047119
-4.783987
0.465432
-5.019686
1.271758
-9.090179
1.766392
-8.638793
3.323505
-11.221838
9.065026
-6.667255
7.048398
-4.613693
5.324986
0.925443
1.896207
-1.789155
-1.254359
11.277450
12.465920
-4.140920
-0.879338
10.030534
9.299041
-5.025447
0.251503
8.173687
6.959312
-7.621690
2.261003
-6.327598
-0.272456
-6.141888
-3.275736
-6.880492
-5.515257
-7.327239
-6.678400
-7.692028
-8.275569
-8.556770
-7.683731
-8.983601
-5.729795
-10.407569
-5.599632
-8.785126
-4.644237
-4.072301
-3.454913
-9.524737
-4.592973
-10.287017
-8.195685
-3.265320
-9.027349
-8.210577
-8.286607
-2.192785
-7.733780
-5.335043
-6.182851
0.385047
-4.794735
-7.095577
-5.223975
3.380010
-2.725160
-6.152853
-4.037220
4.011038
-1.773414
-5.412087
-2.374323
1.275357
-0.626393
-6.050837
-0.318544
-6.816930
-3.595258
-1.961404
1.242406
-8.011133
-3.304330
-3.615935
2.054668
-8.096489
-3.629152
-5.587590
2.495520
-5.623909
-4.732247
-5.694659
1.390376
-5.413390
0.711649
-7.265038
1.495865
-5.236815
0.860515
-1.630914
0.496856
-0.645576
0.585495
-0.586697
0.448370
-1.693289
0.409652
-0.035708
0.451426
2.598199
0.283658
-0.396960
-0.793594
-0.151225
-3.688502
0.671005
0.295116
-0.461545
-4.928262
2.148130
1.603149
-1.161487
-3.550379
0.832683
1.913417
-5.440940
-2.339005
-5.713734
-1.575592
-4.674700
-2.074842
-2.923728
-3.243743
-2.117666
-3.513393
-1.927217
-2.574276
-3.629407
-1.406607
11.326811
12.575620
-2.309102
-1.481699
9.947170
11.094155
-2.325153
-0.703680
-3.681633
-0.465727
-4.406909
-0.263409
-4.931236
-3.539338
2.693855
-1.188337
-6.647118
-1.644781
-2.500658
-3.288492
-4.620451
-0.228096
-2.204307
-6.797155
-5.565784
-0.725151
-0.570363
-9.757318
-3.749501
-0.972078
-1.278131
-8.943690
-3.046358
-8.461101
-3.417979
-10.662055
-2.554463
-4.707020
-3.147374
-11.066264
-3.986347
-5.974923
-4.044659
-9.487485
-6.518091
-5.525010
-4.321392
-6.724324
-8.409652
-9.718477
-7.110289
-9.009193
-3.109230
-4.668108
-1.503533
-3.629357
2.445055
-3.763733
-0.087741
-1.662551
-1.831975
3.744329
5.073900
3.019847
5.280230
1.892705
3.346653
1.315104
-2.776249
-0.599812
10.206637
-1.006309
-4.227046
-1.346079
6.531235
-0.685307
0.510166
-0.111828
-9.976364
0.122014
4.707632
4.027943
-10.573979
0.041228
6.868714
4.849805
-8.400139
-0.334814
8.884331
7.049178
-1.242044
-1.758902
-6.633656
-1.092075
-1.860381
-3.360860
-8.180021
0.621407
-9.200924
1.763183
-11.294697
0.802318
-16.309265
-0.796485
-15.849323
-3.851867
-13.736630
-8.269319
-1.055842
-1.933574
-10.374165
-10.338345
-0.200308
-2.334490
-8.480012
-12.463401
0.100588
-2.348351
-6.672343
-12.183510
0.420600
-2.408581
-2.978454
-11.564637
-0.974150
-14.065796
-0.556925
1.257698
2.321687
-0.144294
-0.356627
-15.085861
-1.677013
0.021725
-1.122033
2.629985
5.945277
3.378114
-1.488710
-15.773226
-1.479165
8.803661
-1.633076
-7.267450
3.867781
0.036630
-1.953559
-2.638575
3.779990
-12.949738
-10.977871
-14.138519
-13.437223
-12.942921
-11.353589
-8.327828
-6.911688
-5.816212
-4.225459
-6.259518
-3.190174
-4.957136
-2.672114
-4.573188
-3.324894
-5.278251
-2.591830
-4.519700
-4.259870
0.623829
-6.138441
0.717891
-3.356804
2.916368
0.454899
0.489773
-2.195509
2.681124
-3.237734
-1.039991
-3.308458
-0.722330
-0.985936
-4.195863
-1.675716
-6.002233
-0.622684
-7.412925
-0.630434
-7.045298
-1.443652
-2.867487
-2.107184
-0.543188
-2.367509
-0.270174
-5.088179
2.543385
-5.557780
-3.822078
-4.178064
-4.421681
-2.755462
-2.973878
-0.482474
-1.904415
0.038275
-1.848061
-1.855958
-1.183203
-2.087353
3.254149
-3.077795
-0.128646
-4.336581
-0.028846
-5.034045
-0.192239
-7.524437
-0.467780
-1.781138
-1.572879
-3.249407
-2.096197
-10.881868
-6.013741
-12.732642
1.466625
2.194175
0.606840
6.271430
0.419982
6.637624
0.697889
4.430396
2.296958
1.127138
-0.924701
-0.297064
-0.471136
1.348806
-1.659567
4.537956
3.052747
1.031447
-1.773408
1.548396
-1.338661
-3.756694
-1.554710
-0.491671
-4.803389
-4.563469
-1.834783
-0.385231
-5.639459
-5.905941
-6.324851
-4.351348
-3.757194
-4.041371
-6.575428
-3.621725
-6.522211
-2.903959
-3.510823
13.341494
9.628858
-3.197063
-4.024126
14.094437
6.862323
-2.810151
-5.618019
12.651691
8.691266
-5.017646
-7.025343
-6.690979
-8.492637
-7.747044
-6.906322
-8.931832
-3.927730
-10.186738
-2.580862
-1.675621
-0.050776
-11.900271
-0.363492
-11.238911
1.996912
-9.751798
5.453499
-5.117902
6.518287
-6.222119
2.621423
-7.019711
-0.091436
-8.041719
-1.503053
-8.289670
-1.470357
-8.637127
-1.559003
-9.733050
-1.786728
-7.739606
-4.957296
-12.042591
-3.314421
-12.999751
-9.333228
-11.891338
-4.520397
-1.202339
-6.457531
-15.809591
-5.850701
-0.592160
0.157214
0.507639
-10.290128
-17.002509
-6.625227
-0.997718
0.726802
0.792163
-3.396519
-1.569423
-1.523300
2.715123
2.722965
-4.391666
-6.502925
1.571261
-2.627053
8.018772
1.504866
-2.832020
-3.437947
4.479268
-1.282059
-0.386923
-2.598392
-0.843574
-1.593789
-1.262963
-1.873034
-1.165687
0.603517
-1.592932
0.162523
-2.414975
-0.665705
-3.317982
-4.015419
-2.433810
-5.468514
-2.859640
-2.511402
-4.583789
-2.292751
-4.428544
-3.124782
-4.711088
-1.054249
-4.980934
-2.377795
-9.071040
-0.522850
-4.114561
-1.499736
-11.822562
-1.215845
-2.962486
-0.991011
-12.732849
-1.375277
-3.025713
-0.903493
-3.886808
-0.494254
-3.289610
0.353740
-4.172764
-0.758817
-1.277405
-1.728578
-1.736879
-4.035201
8.215989
-0.867631
-2.356196
-5.910436
3.927196
1.192635
-3.053717
-7.808677
-6.509885
-5.667788
-5.780691
-2.593145
-4.030450
-0.719845
-2.700827
-6.892288
-2.260473
-5.078372
-0.611749
-3.214583
-0.416436
-2.255822
0.190237
-1.323763
-1.214651
-1.452596
0.538355
-0.315681
-0.476321
-0.419872
0.874680
-0.377902
1.493916
-0.095396
2.480839
0.022503
1.991894
-0.134847
1.027500
-0.789871
-2.073716
-0.567994
-0.360740
-0.482620
-3.989548
0.557789
-0.037304
-1.288866
-5.164459
1.069722
6.903178
-3.392366
-7.195442
1.733688
5.459070
-5.553411
-14.009827
2.006637
0.719320
-3.334115
-14.951330
3.804611
-15.115888
4.956040
-17.219089
5.882557
-10.250470
6.493731
-3.923308
6.054585
-3.814317
3.570365
10.696333
12.163967
-5.353737
1.216009
11.044687
11.156830
-6.101160
1.095710
8.621531
7.804923
-6.725521
0.242240
-6.436464
-0.716899
-5.564898
-6.291021
-5.932876
-2.284027
-6.397742
-7.988034
-7.464532
-4.028595
-7.821500
-10.624396
-10.659997
-5.440182
-8.385614
-12.952150
-11.202093
-6.101998
-8.873131
-6.221446
-9.513894
-4.889628
-10.420671
-4.669067
-3.711386
-2.193794
-11.979813
-3.727583
-9.223237
-6.819030
-10.820626
-7.329714
-4.343378
-7.624785
-2.712592
-5.013273
-5.059182
-4.113311
0.516073
-2.459723
-7.219246
-3.658556
2.488754
-0.974692
-5.629210
-2.978193
2.770666
-0.675239
-5.540957
-2.209489
1.747805
-0.398842
-6.124627
-3.591048
-0.472906
-1.522182
0.935537
-1.164807
-6.934052
-3.325189
-0.239471
-0.095025
-6.918351
-4.245384
-2.249348
2.305467
-7.897008
1.750310
-5.182077
2.583949
-6.034144
-3.236511
-6.835967
2.753354
-7.408552
3.357257
-7.886336
0.688047
-5.807567
-0.174740
-2.730288
-0.744037
-0.751048
-0.895455
-0.976094
-0.333913
-2.084223
-0.094628
-0.319856
0.145682
5.647459
-0.149925
0.582916
-0.637497
0.196046
-1.879188
-0.163267
-4.194023
-0.926208
-3.953848
-3.527102
-3.173747
-4.351531
-3.752789
-4.295575
-3.940297
-4.880180
-4.166657
-6.584034
-5.583912
-6.432778
-6.405792
-4.614017
-4.067807
-8.189116
-3.529181
-7.198061
-2.084637
10.362509
13.809637
-4.520616
-1.384045
9.400201
12.576421
-3.399264
-1.222275
8.560019
9.406420
-4.828446
-1.264405
-5.659505
-1.274533
-8.066658
-2.122778
-8.397156
0.138398
-1.429509
-3.822428
-9.104416
-6.367252
-10.474536
-7.539166
-4.461175
-9.026025
-2.790212
-9.763549
-2.168931
-12.260391
-2.059408
-10.977575
-3.312080
-4.050698
-2.613433
-7.922773
-4.589605
-5.358216
-3.924594
-5.944485
-4.111890
-5.466818
-5.728033
-4.164007
-4.076332
-5.670350
-7.032157
-3.565404
-3.310139
-8.292099
-5.029116
-4.981155
-0.613660
-8.162855
-3.685795
-6.251900
-1.336033
-3.822607
1.346811
-4.265307
-1.142194
-3.542097
-1.079273
-2.019787
-1.419612
-2.457774
-1.954314
3.645166
3.680966
3.945444
4.955862
3.939685
7.285699
5.095946
-0.425003
2.179490
3.473651
2.800132
-2.149171
-0.009843
6.609423
0.203630
3.458731
-0.998937
-0.339342
1.202447
-11.325401
2.010339
4.810570
7.316616
-12.380646
0.377869
5.645771
6.329667
-9.837824
-0.300491
6.791855
8.649022
-6.603110
-2.529804
9.061329
7.983114
-7.421189
-0.845288
-8.018449
0.559287
-10.375043
3.717070
-15.794300
-0.631325
-15.104656
-4.673353
-11.201504
-7.995776
-5.918603
-11.031174
-0.752853
-3.673566
-5.026624
-14.777483
-0.531399
-3.927976
-5.942251
-13.129516
-1.241461
-3.211479
-3.019207
-12.160912
-2.241611
-2.805970
-1.862637
-14.160445
-2.346431
1.967528
-1.493705
-17.064797
-3.437772
3.113649
7.352441
9.496644
8.464680
3.452065
-3.039425
-16.210784
-3.433479
5.098920
-4.017969
-14.986455
0.160751
-2.453122
-3.212874
-5.151570
1.364394
-3.997870
0.532671
-4.382574
-0.871915
-3.479914
-2.366884
-14.413970
-12.426927
-12.318540
-9.196779
-7.601653
-6.993130
-4.147869
-3.770493
-2.999712
-3.169302
-3.400296
-1.507759
-4.396742
3.840921
-4.318458
-2.200050
-4.853731
-4.682618
3.098019
0.108724
7.787547
2.270983
2.085715
-1.326308
10.097710
0.877020
2.011834
0.062058
3.017476
-0.425488
-0.566340
-0.901006
-1.493720
-0.202335
-4.178694
0.670341
-0.855527
1.043890
0.128175
0.573183
0.565072
0.379260
1.308745
-0.084030
5.451971
-2.011962
-7.120966
-2.621143
-8.035443
-2.015860
-6.224236
0.585364
-5.396095
0.162269
-4.314931
-3.453740
-2.975632
-4.807383
-0.419347
-4.716827
-1.820911
-3.885497
-2.623097
-5.413330
-3.171290
-7.954127
-3.232442
-3.355083
-2.480495
-12.336014
-7.410293
-13.932317
-12.123628
-11.907453
1.669666
2.799264
0.856399
4.195101
0.907591
3.833934
1.162216
3.819660
2.974240
1.250188
-1.028296
-0.663676
0.015273
0.835967
1.289568
-0.334638
-1.274304
-0.506595
-1.288527
-3.743921
-1.436142
-0.332064
-0.148215
-0.775533
-5.091798
-3.908834
-1.431928
-0.873409
-7.324552
-7.254881
-5.223666
-3.778510
-2.215638
-1.068956
-1.836370
-4.140830
-7.564093
-3.075523
-7.233969
-3.975362
-3.094814
-4.404809
-2.662013
-3.377209
-2.690869
-6.656422
-3.922675
-8.333352
-3.766951
-10.433588
-2.094211
-11.485726
-1.342900
-12.829627
-0.351056
-11.983068
0.804677
-13.899657
2.727915
-12.169377
5.525766
-6.286971
4.194087
-6.767501
3.020348
-7.859472
-1.034892
-8.989349
-2.073707
-10.085938
-1.466161
-8.853309
-0.782116
3.325423
3.488028
-11.803120
-1.442017
-1.074712
-0.228445
-8.879990
-1.095704
-13.733152
-7.965912
-6.194706
-3.924837
-8.976414
-3.886987
-3.961350
-8.949113
-15.984213
-9.320633
-11.849308
-5.269418
-1.185270
-0.141557
0.031929
-12.233570
-16.944000
-5.612403
-0.862814
0.452790
-0.128879
-14.204810
-16.890577
-6.792180
-6.675665
-3.059137
-1.692013
1.856457
1.830412
-7.048309
-6.341334
-6.504333
-6.065472
-0.631148
0.998052
4.576307
1.904390
-1.980581
2.838317
10.908123
-2.177054
-4.088610
2.112394
-5.832501
-2.540842
4.041098
-2.253987
-6.530260
-1.351608
1.788998
-5.359048
-5.555043
-1.301139
1.721387
-1.708352
1.917202
-3.661377
1.857768
-3.524173
2.897833
-2.559467
2.202322
-2.481569
1.372375
-3.045532
-0.717102
-2.931583
-1.449473
-3.472730
-1.356113
-5.057804
-0.897745
-6.613764
0.057497
-11.621416
0.381624
-2.539661
-1.139059
-25.779453
-0.035868
-1.528237
-0.100075
-13.624436
-0.634236
-0.437361
1.425778
-4.234718
-0.349167
0.096772
1.217047
-4.260105
-1.507209
-3.383654
-3.379630
-0.843739
-1.672568
-1.688665
-4.897720
5.272072
1.132751
-0.895219
-3.195883
-0.277468
-2.020653
-5.494504
-3.626685
-5.123304
-4.326340
3.695993
3.184396
-3.527230
-4.903847
-2.529018
-7.873732
-1.987935
-6.535980
-0.871460
-3.869631
-1.075961
-1.783693
-0.586325
-1.317356
0.056162
-0.805237
0.776936
-0.740584
1.759327
-0.254790
2.116561
-0.046409
1.557637
0.041400
0.040518
-0.368701
-1.908220
0.365270
0.176555
-0.917399
-5.049480
-1.034827
-6.786014
0.939920
2.415389
-2.656638
-14.092500
1.242149
2.461934
-4.891449
-15.640977
1.919741
2.638778
-7.521484
-16.209042
2.740755
0.677158
-5.845493
-16.947557
3.964039
-18.027807
5.081438
-17.313077
9.268031
-9.236091
10.873088
-8.593548
4.134668
-8.402042
2.471098
-6.104789
0.508550
-6.166002
-6.105917
-5.222416
-1.044636
-5.344092
-6.043771
-5.450593
-1.522245
-5.728657
-5.949982
-5.567961
-6.595901
-5.124992
-3.113751
-6.496018
-8.197440
-7.577955
-4.123147
-7.422396
-13.232398
-11.265612
-4.272610
-8.554455
-13.416224
-10.081668
-3.239298
-9.251844
-10.419256
-9.685048
-3.483060
-10.704046
-3.001222
-11.486243
-2.969149
-13.199399
-4.824102
-10.668310
-7.902615
-11.769613
-2.497987
-3.341896
-3.266739
-2.794571
-4.793325
-1.990337
-4.399150
-5.411712
-3.572216
0.007123
-2.414293
-9.702136
-2.230299
2.177884
-0.439356
-7.237120
-1.882557
2.463746
0.511206
-6.632378
-1.328115
2.062425
0.279461
-7.677676
-4.531250
2.593501
-0.587540
1.076345
-0.224486
-7.311999
-6.467599
1.312463
0.273370
1.064063
0.272384
-6.743517
-6.095697
-2.923748
2.917800
-6.130201
-4.479287
-4.349149
3.219683
-8.841111
3.096674
-8.587184
2.654682
-8.589024
0.064070
-5.705656
-0.887029
-2.559400
-1.221819
-1.022199
-1.330981
-2.320899
-0.743140
-2.665455
-0.337658
-1.656655
-0.243517
-0.639922
-0.254899
-0.441924
-0.564918
0.220448
-0.961029
0.015094
-1.558801
-0.104910
-3.525303
-0.073513
-4.081897
-0.851766
-4.659952
-2.715601
-4.529822
-7.949802
-4.652784
-4.606386
-4.728470
-8.883629
-6.879921
-7.167337
-5.674462
-8.322811
-9.995888
-11.195773
-3.527596
1.266014
6.992957
-6.938172
-1.540786
0.524370
13.021850
-4.317122
-1.992729
4.717079
11.647775
-3.609551
-1.735432
-7.039867
-2.069912
-8.269978
-2.188892
-11.235750
-2.350732
-10.969636
-3.608158
-10.799881
-4.448915
-10.601425
-4.731194
-6.461223
-7.528797
-9.750480
-6.494496
-1.935791
-7.040811
-0.674473
-8.595116
-0.340547
-8.203646
-1.627409
-5.859658
-5.101341
-4.447543
-4.343946
-4.130129
-0.328690
-4.255747
-7.794759
-5.134444
-3.424773
-5.481934
-9.855850
-5.867157
-4.278908
-6.331925
-7.817124
-5.100348
-3.340206
-7.040073
-5.614048
-3.508339
5.071390
-7.110124
-5.735981
-6.003543
-2.863402
0.511105
-2.575622
-1.998797
-1.851816
-4.667127
-2.409032
-4.219082
-2.497742
-3.122572
-2.156584
4.204289
3.789209
4.260325
4.289765
5.741289
6.010318
5.951257
3.165833
5.046963
-1.555900
2.404436
0.988250
4.197022
-2.210354
1.806693
1.011040
2.237996
-2.828662
1.413540
-8.323674
3.574017
-11.316385
5.245783
4.900832
6.586600
-11.739604
0.991839
7.163343
8.483103
-9.146192
-1.139383
7.407341
9.974318
-7.482695
-3.995589
10.263027
10.398563
-7.130299
-1.905981
-7.257129
-0.487328
-9.614104
-0.722843
-13.729073
-2.431540
-13.232637
-5.322586
-10.588195
-8.326546
-5.388419
-10.292777
-2.441922
-5.143518
-2.774736
-12.502785
-2.090350
-4.951122
-4.340555
-11.187247
-2.856902
-3.875768
-3.301895
-15.197969
-3.281102
-1.881499
-1.909607
-16.043668
-4.778421
4.301724
-1.456103
-15.146198
-6.955586
9.363601
10.010170
2.571126
-2.365505
-15.813804
-7.684760
11.734968
9.482913
-2.398215
-3.533737
-14.358486
-3.611923
-8.360647
-1.667237
-6.735036
-1.180493
-5.499605
-1.627585
-3.527673
-2.701352
-5.399478
-6.737132
1.177495
-3.719198
1.464293
-2.647153
1.303608
0.254963
0.279570
5.899810
6.116933
1.714670
5.501410
-2.058627
9.750136
3.923476
4.656406
1.046417
4.622183
0.824084
1.628309
0.569716
0.970566
0.758426
0.800427
2.222045
1.175446
2.714491
1.278805
2.111338
1.570073
1.774489
1.548865
1.597258
2.288730
2.263987
-8.120049
1.187304
-8.106929
0.653624
-8.184856
1.134802
-6.944888
0.863177
-5.576277
-5.692712
-4.551573
-7.181128
-1.861594
-7.731268
-1.986540
-4.773302
-4.133817
-6.568479
-5.493147
-8.778166
-5.145938
-3.273863
-3.351715
-12.767037
-2.173120
-3.419579
-9.978411
-13.786183
1.384741
2.966874
1.335970
3.203465
1.611564
2.813200
2.326772
2.711411
-0.735349
-2.351379
-0.684594
-5.056986
-0.264277
-0.831996
-2.774285
-3.778832
-1.840470
-3.237276
-3.022041
-3.210400
-1.572753
-1.766715
-2.039901
-3.724731
-3.240841
-3.383269
-6.440363
-3.514739
-2.478748
-4.615464
-5.341631
-4.462569
-0.862892
-3.704776
-0.967327
-6.295537
-2.509768
-9.496229
-1.448642
-12.635152
-13.381320
-13.302155
0.266080
-14.259409
2.140879
-13.770442
4.094261
-14.412029
3.833957
-12.360163
3.633408
-10.758633
4.958878
-6.339734
5.131424
-7.091093
4.371048
-5.520657
-0.155980
-7.626673
-2.302755
-9.193771
-2.477056
3.563303
4.397021
-10.734052
3.371476
-10.985799
1.591675
-10.088592
0.215233
-12.288641
-8.343328
-9.556931
-3.216119
-3.804131
-10.375460
-12.809109
-7.156605
-9.419199
-4.304323
-2.649911
-1.019064
0.971654
-13.888955
-15.847684
-8.141521
-5.371049
-4.731139
-1.588330
0.093148
-0.265609
-15.619516
-17.124525
-9.325239
-6.863046
-7.371081
-5.893628
-7.242115
-5.221625
-6.235867
-4.415112
-4.289543
-5.096162
0.855949
2.176517
1.085976
2.257890
10.450691
-0.197835
-6.218724
-5.403928
6.023994
-3.174937
-8.023931
-2.957956
4.763317
-7.161499
-7.361137
-1.434026
5.178151
-1.514374
4.827010
-5.445966
4.590073
-4.328719
5.344316
-2.856105
3.345644
-2.442522
0.623848
-2.746086
-1.580703
-3.516834
-2.392420
-2.739945
-0.243522
-5.049547
0.676802
-7.592447
1.156577
-10.740754
1.228411
-12.776518
1.308681
1.317869
1.727215
-13.344384
0.942054
1.568371
2.437517
-5.436316
0.883385
1.949050
2.738983
-5.100231
-0.916109
-6.142819
-3.808857
-8.024834
-1.161115
2.091186
-2.291752
5.389234
1.442041
-1.970453
-1.730782
0.144835
-3.918372
-4.625429
-2.791181
6.543183
-2.172895
-4.406147