# vtk DataFile Version 1.0
vtk file 5cp6_5:E:C_model1
ASCII
DATASET POLYDATA

POINTS 10208 double
-10.334000 4.310000 -25.036000
-7.617000 4.079000 -25.067000
-1.696000 4.372000 -25.200000
-0.786000 4.204000 -25.145000
-10.922000 4.493000 -24.114000
-7.239000 4.156000 -24.344000
-4.435000 4.155000 -24.124000
0.434000 4.079000 -24.049000
-11.414000 4.145000 -22.989000
0.697000 4.058000 -23.151000
-11.415000 4.258000 -22.009000
1.018000 4.166000 -22.162000
-11.422000 4.137000 -21.089000
1.138000 4.337000 -21.289000
-11.284000 4.237000 -20.189000
1.478000 4.273000 -20.304000
-11.279000 4.237000 -19.189000
2.084000 4.135000 -19.122000
-11.298000 4.163000 -18.148000
2.601000 4.089000 -18.257000
-10.915000 4.294000 -17.141000
4.421000 4.169000 -17.147000
-10.606000 4.182000 -16.168000
4.662000 4.400000 -16.282000
-10.484000 4.237000 -15.189000
5.146000 4.186000 -15.082000
-10.667000 4.337000 -14.289000
5.439000 4.176000 -14.022000
-10.801000 4.200000 -13.395000
5.561000 4.158000 -13.022000
-11.354000 4.418000 -12.284000
5.262000 4.201000 -12.207000
-11.651000 4.388000 -11.365000
4.772000 4.050000 -10.973000
-11.811000 4.236000 -10.356000
4.978000 4.194000 -10.106000
-11.614000 4.332000 -9.206000
5.217000 4.237000 -9.189000
-10.563000 4.218000 -8.305000
5.522000 4.237000 -8.189000
-9.599000 4.081000 -7.306000
5.410000 4.404000 -7.268000
-8.780000 4.071000 -6.150000
4.571000 4.201000 -6.089000
-7.627000 4.021000 -5.146000
4.502000 4.268000 -5.104000
-6.747000 4.166000 -4.167000
5.076000 4.008000 -4.142000
-6.588000 4.337000 -3.289000
7.253000 4.046000 -3.041000
-6.857000 4.228000 -2.260000
8.135000 4.103000 -1.991000
-6.926000 4.420000 -1.203000
8.380000 4.337000 -1.289000
-5.877000 4.220000 -0.135000
8.522000 4.272000 -0.264000
-4.463000 4.166000 0.866000
9.027000 3.993000 0.751000
-4.057000 4.082000 1.780000
10.633000 4.318000 1.929000
-4.331000 4.270000 2.807000
11.286000 4.069000 2.707000
-10.904000 4.323000 3.780000
-8.572000 4.071000 3.826000
-4.472000 4.337000 3.711000
12.067000 3.989000 3.836000
14.379000 4.416000 3.886000
16.422000 4.145000 3.791000
-12.852000 4.334000 4.847000
-7.693000 4.166000 4.801000
-4.537000 4.224000 4.727000
19.922000 4.368000 5.013000
-12.915000 4.248000 5.740000
19.403000 4.238000 5.904000
-12.477000 4.178000 6.637000
18.358000 4.216000 7.017000
-11.507000 3.993000 7.775000
18.233000 4.244000 7.897000
-10.626000 4.248000 8.787000
-8.415000 4.400000 8.867000
-6.908000 4.393000 8.875000
17.667000 4.031000 8.944000
-9.911000 4.270000 9.932000
-7.946000 4.230000 9.714000
-6.810000 4.372000 9.689000
-1.717000 4.192000 9.743000
3.275000 4.210000 9.848000
17.766000 4.042000 9.811000
-12.476000 4.305000 11.076000
-6.955000 4.237000 10.673000
-5.828000 4.302000 10.871000
-2.780000 4.227000 10.742000
4.909000 4.308000 11.008000
18.108000 4.166000 10.811000
-12.943000 4.105000 11.920000
-7.476000 4.181000 11.773000
-4.916000 4.229000 12.056000
-2.648000 4.197000 11.611000
5.104000 4.324000 11.811000
18.235000 4.237000 11.811000
-12.864000 4.337000 12.711000
-9.642000 4.318000 12.737000
-4.681000 4.074000 12.961000
-1.782000 4.215000 12.681000
5.303000 4.330000 12.787000
18.490000 4.343000 12.925000
-12.402000 4.120000 13.601000
-10.727000 4.325000 13.744000
-4.350000 4.049000 13.780000
-0.607000 4.251000 13.707000
7.001000 4.045000 13.879000
18.264000 4.366000 13.944000
7.541000 4.238000 14.734000
17.540000 4.188000 15.027000
8.243000 4.146000 15.582000
17.185000 4.220000 15.758000
10.281000 4.181000 16.901000
13.461000 4.310000 16.846000
15.360000 4.297000 16.904000
16.343000 4.321000 16.885000
-12.083000 4.194000 4.364000
-12.027000 4.425000 7.152000
-12.183000 4.139000 10.613000
-11.929000 4.142000 13.882000
-11.219000 4.037000 -23.741000
-11.148000 4.333000 -17.700000
-11.043000 4.167000 -12.561000
-11.128000 4.237000 -8.571000
-11.155000 4.155000 3.962000
-11.111000 4.215000 8.145000
-11.330000 4.197000 10.390000
-11.041000 4.060000 13.935000
-9.891000 4.228000 -25.373000
-10.250000 4.464000 -7.949000
-10.051000 4.281000 3.557000
-10.076000 4.297000 9.385000
-10.388000 4.235000 10.356000
-10.200000 4.357000 13.291000
-9.063000 4.337000 -25.895000
-9.205000 4.404000 -6.538000
-9.120000 4.337000 3.563000
-8.960000 4.223000 12.441000
-8.221000 4.246000 -25.725000
-8.088000 4.409000 -5.718000
-8.158000 4.404000 4.252000
-8.058000 4.448000 8.526000
-8.270000 4.302000 9.494000
-8.103000 4.035000 12.356000
-6.968000 4.302000 -24.021000
-7.125000 4.278000 -4.788000
-7.195000 4.296000 5.260000
-7.167000 4.395000 8.482000
-7.338000 4.242000 10.044000
-7.071000 4.213000 11.286000
-6.263000 4.113000 -23.513000
-6.312000 4.509000 -0.434000
-6.330000 4.123000 5.566000
-6.338000 4.269000 10.401000
-5.193000 4.154000 -23.581000
-5.207000 4.309000 0.204000
-5.365000 4.070000 5.444000
-5.138000 4.319000 11.579000
-4.036000 4.182000 -24.349000
-4.196000 4.282000 1.277000
-4.155000 4.025000 2.478000
-3.978000 4.183000 13.971000
-3.263000 4.137000 -24.597000
-3.163000 4.109000 14.142000
-2.193000 4.134000 -24.951000
-2.075000 4.060000 10.231000
-2.275000 4.247000 12.312000
-2.092000 4.126000 14.232000
-1.214000 4.459000 -25.258000
-1.059000 4.246000 9.395000
-1.236000 4.274000 13.061000
-1.072000 4.247000 14.368000
-0.131000 4.336000 -24.823000
-0.063000 4.337000 9.278000
0.915000 4.258000 -22.716000
0.908000 4.226000 9.435000
1.773000 4.300000 -19.415000
2.003000 4.354000 9.540000
3.034000 4.364000 -17.969000
2.851000 4.410000 9.637000
3.820000 4.166000 -17.585000
3.847000 4.309000 10.047000
4.821000 4.353000 -15.542000
4.925000 4.099000 -11.526000
4.872000 4.313000 -10.617000
4.839000 4.166000 -6.515000
4.818000 4.144000 -4.493000
4.701000 4.318000 10.639000
5.680000 4.342000 -3.637000
5.760000 4.218000 13.391000
6.642000 4.304000 -3.385000
6.591000 4.141000 13.698000
7.713000 4.474000 -2.659000
7.879000 4.256000 15.118000
8.738000 4.295000 0.566000
8.872000 4.221000 16.039000
9.838000 4.113000 1.444000
9.677000 4.262000 16.416000
10.898000 4.318000 2.065000
10.977000 4.302000 17.263000
11.689000 4.206000 3.559000
11.837000 4.237000 17.325000
12.838000 4.279000 4.368000
12.822000 4.166000 17.132000
13.703000 4.082000 4.243000
13.817000 4.110000 16.688000
14.812000 4.176000 3.590000
14.724000 4.096000 16.616000
15.922000 4.224000 3.583000
15.842000 4.304000 17.020000
16.974000 4.331000 3.942000
16.776000 4.115000 16.314000
17.909000 4.257000 4.077000
17.805000 4.129000 8.443000
17.888000 4.242000 10.041000
17.852000 4.033000 14.418000
18.937000 4.337000 4.495000
18.756000 4.180000 6.346000
19.697000 4.272000 4.713000
19.712000 4.161000 5.342000
-12.294000 5.678000 -12.973000
-12.113000 8.715000 -13.131000
-11.013000 -10.292000 -13.162000
-11.113000 -8.307000 -13.353000
-11.206000 4.569000 -13.086000
-11.063000 8.734000 -13.089000
-10.311000 -10.552000 -13.126000
-10.254000 -8.029000 -13.066000
-10.289000 3.531000 -12.937000
-10.245000 8.529000 -13.189000
-9.196000 -11.145000 -13.118000
-9.330000 -7.606000 -13.337000
-9.260000 2.739000 -13.118000
-9.078000 7.851000 -13.022000
-8.263000 -11.244000 -13.289000
-8.330000 -7.519000 -13.301000
-7.915000 -3.046000 -13.089000
-8.163000 7.739000 -13.189000
-7.235000 -11.005000 -13.139000
-7.251000 -7.323000 -13.369000
-7.034000 -3.545000 -13.026000
-7.263000 7.867000 -13.289000
-6.163000 -10.945000 -13.268000
-6.284000 -7.557000 -13.165000
-6.235000 -3.915000 -13.406000
-6.314000 7.992000 -13.271000
-5.360000 -10.798000 -13.363000
-5.248000 -8.019000 -12.998000
-5.315000 -3.261000 -13.260000
-5.256000 8.646000 -13.189000
-4.102000 -2.128000 -13.342000
-4.370000 9.130000 -13.327000
-2.956000 -1.694000 -13.048000
-3.096000 11.743000 -13.132000
-2.066000 -1.668000 -13.014000
-2.199000 12.535000 -13.238000
-1.175000 -2.021000 -13.420000
-1.141000 14.394000 -13.386000
-0.036000 -6.943000 -13.397000
-0.334000 -5.099000 -13.339000
-0.179000 -1.270000 -13.247000
-0.235000 14.615000 -13.226000
1.037000 -6.502000 -13.278000
0.690000 -4.645000 -13.242000
0.902000 0.758000 -13.021000
0.841000 14.532000 -13.260000
2.003000 0.672000 -13.082000
1.860000 13.912000 -12.993000
2.980000 0.446000 -13.031000
2.999000 11.902000 -13.255000
3.927000 0.130000 -13.284000
4.002000 11.099000 -13.233000
4.745000 0.524000 -13.127000
4.775000 10.714000 -13.250000
5.892000 -4.112000 -13.253000
5.905000 -1.466000 -13.352000
5.836000 4.710000 -13.356000
5.857000 9.667000 -13.253000
6.837000 -4.352000 -13.246000
6.737000 -1.378000 -13.205000
7.761000 -4.196000 -13.397000
7.608000 -1.505000 -13.277000
-12.919000 1.168000 10.890000
-12.959000 3.700000 10.727000
-12.163000 0.898000 10.811000
-11.929000 4.477000 10.889000
-11.338000 0.659000 10.869000
-10.988000 4.609000 10.945000
-10.194000 -0.061000 11.012000
-9.999000 4.474000 10.787000
-9.113000 -0.417000 10.888000
-9.063000 4.733000 10.911000
-7.979000 -5.090000 10.896000
-8.263000 4.704000 10.711000
-7.063000 -5.422000 10.911000
-7.383000 4.355000 10.855000
-6.112000 -5.489000 10.820000
-6.327000 4.161000 10.957000
-4.991000 -5.848000 10.779000
-5.180000 4.740000 10.756000
-4.220000 -6.081000 10.788000
-4.092000 4.836000 10.787000
-3.086000 -6.867000 10.779000
-3.115000 4.402000 10.811000
-2.163000 -7.043000 10.778000
-2.079000 3.784000 11.031000
-1.141000 -7.189000 10.717000
-0.946000 3.097000 10.786000
-0.070000 -7.908000 10.959000
-0.011000 3.026000 10.957000
1.002000 -8.804000 11.060000
0.732000 3.125000 10.669000
1.676000 -8.850000 10.883000
1.688000 3.030000 10.966000
2.782000 -8.570000 10.593000
2.670000 2.756000 10.868000
3.907000 -9.069000 10.794000
3.634000 2.834000 10.800000
3.812000 8.501000 10.824000
3.894000 9.807000 10.877000
4.638000 -9.653000 10.785000
4.696000 3.996000 10.850000
4.749000 6.544000 11.000000
4.837000 9.990000 10.967000
5.938000 -10.362000 10.902000
5.737000 9.949000 10.884000
6.737000 -10.406000 10.711000
6.653000 9.551000 10.909000
7.725000 -10.287000 10.794000
7.734000 9.681000 10.689000
8.795000 -9.283000 10.920000
8.870000 11.652000 10.777000
9.923000 -13.499000 10.856000
9.695000 -12.189000 10.680000
[...]
POINT_DATA 10208
SCALARS Potential double
LOOKUP_TABLE default
15.910176
16.224286
22.089592
24.189498
14.436760
13.291266
21.182935
32.731402
17.168623
28.099579
16.891524
28.899570
16.461770
27.483086
13.608121
30.261369
13.049399
26.482084
11.341226
21.202103
9.286770
21.954628
7.891392
16.062315
7.178299
13.150804
7.043185
11.216093
6.560749
10.697473
5.356048
9.590834
4.925395
9.746170
6.255036
9.266837
7.165508
7.867854
5.820465
8.821593
3.882803
8.234288
2.507131
5.207156
1.576372
3.056239
0.743291
2.352759
0.640850
5.807220
0.007772
7.327278
-2.274569
6.719793
-6.489691
6.323105
-7.953266
6.085952
-7.872852
6.436508
-11.204551
8.826400
-8.244830
-11.727859
-14.979661
9.395724
7.576339
6.655825
-9.077477
-12.558868
-17.825972
15.168534
-9.019259
13.350900
-9.202924
14.616125
-7.036386
18.078310
-7.048873
-5.503371
-7.210143
21.523841
-6.513625
-5.752202
-7.914466
-7.069169
-3.545067
19.015635
-10.510864
-3.147240
-2.648521
-7.256808
-2.546387
13.966657
-10.057952
-3.159408
-5.054220
-7.680490
-1.752973
9.512786
-9.921143
-6.057761
-6.840526
-5.781549
-1.091831
8.168554
-8.124973
-7.687068
-6.958059
-2.331259
2.414066
8.424097
2.705157
10.728752
3.478843
11.581206
2.530460
9.828742
10.638123
11.793584
-8.689658
-8.859448
-10.372214
-7.895599
17.799357
10.357065
6.648145
6.950548
-6.891373
-7.285236
-9.064593
-7.314042
11.560231
4.535428
-9.757196
-7.472374
-6.695023
-7.240606
15.152352
2.890732
-11.400574
-4.429968
16.043599
1.651893
-13.623708
-6.536956
-6.458536
-3.797151
14.895248
1.077278
-14.608473
-6.278354
-5.912586
-2.124611
13.762126
-5.195423
-17.003178
-3.247676
17.155117
-7.230326
-19.078151
-3.530307
20.492728
-7.751416
-7.680361
-7.072250
18.650762
-6.284965
19.060854
-7.920325
-7.010205
-3.707591
22.487839
-6.510284
-4.323646
-2.326050
26.376900
-5.368013
27.622173
-3.735632
30.383526
-2.801405
21.884445
-3.341564
23.807620
-4.175368
13.297087
10.260269
10.198549
5.830961
2.098582
-2.822399
3.182064
0.397514
4.871481
2.049251
5.959651
2.527871
6.083813
3.466663
7.079920
2.565823
9.936552
2.835288
10.209365
5.966370
9.101759
9.405971
8.865602
9.600990
8.821694
9.197838
7.877220
11.843501
7.111757
12.733804
9.500623
17.567057
13.028760
9.986365
8.033634
14.086213
10.606251
13.354632
5.092156
5.643053
7.236087
7.636435
6.045189
4.149787
4.923311
6.370282
7.988536
3.982761
5.510836
5.229671
7.388597
3.152135
5.409835
5.534314
8.150371
4.078278
5.497628
7.184169
8.346664
3.951007
7.148690
7.269449
11.348288
2.181358
12.262623
8.618519
11.266028
1.795952
11.331681
1.674699
13.105951
-1.086771
12.770380
-2.124523
13.570784
1.962680
15.108793
12.759817
15.304526
2.816834
15.735764
14.975039
12.434552
3.303389
13.388259
2.891495
15.543852
5.456266
13.737314
4.739272
17.279734
5.595490
20.362392
15.739882
8.774423
7.081137
16.881050
14.567908
17.923753
16.573568
-5.819855
-10.828376
-5.233691
-10.629103
-2.811121
-9.391880
-0.149403
-6.981036
0.420776
-7.242519
8.995251
-6.865090
9.806118
-4.147643
5.867460
-0.633852
6.969163
-6.309280
7.373949
-7.756390
10.861977
-7.505399
11.289886
-7.206127
12.460889
-6.224747
19.984209
-5.458289
15.931304
-4.577772
10.823111
-1.788531
8.992811
-0.443341
9.809663
-0.451823
-0.248951
-2.486066
12.827054
-1.871264
-2.530245
-1.849271
16.441990
-1.176557
15.765851
-1.160486
14.175216
-0.754101
9.124982
1.167308
13.106512
9.895833
8.905685
6.131853
13.815681
5.108675
12.953605
12.112871
12.763386
5.205423
12.293527
10.636601
6.537864
6.656994
11.027889
7.026513
10.805166
5.933562
8.383424
5.930238
14.346921
8.352153
15.242475
10.353861
15.833159
11.517201
4.325040
3.791199
3.880802
3.527415
3.717603
2.952924
2.923459
2.540950
0.046046
0.560128
-0.219806
-2.969776
-1.440721
-4.408052
-0.905921
-1.715224
-1.481205
-0.394779
-1.092856
0.568261
0.195414
1.994630
3.322991
3.545815
5.019700
5.432140
5.947032
5.417663
13.228663
14.876681
19.533187
20.896244
18.994755
15.518471
21.888317
27.884799
14.569429
18.721912
25.039375
30.919361
15.185159
13.833547
19.132344
28.962661
25.997183
22.536367
18.111314
30.623867
13.179581
27.584272
11.882941
26.703540
11.122910
21.198805
9.374957
19.163879
7.698807
14.786656
8.006076
13.177341
6.087096
8.775192
5.156121
7.585774
3.651590
6.948347
4.928203
8.684034
5.779963
8.469473
8.304606
7.306342
6.461933
7.078088
2.946483
6.653299
2.072904
2.938464
0.628293
4.596162
0.896679
1.555955
0.855543
3.718875
-0.212771
6.950418
-1.897388
6.296485
-5.973184
4.600359
-7.706822
4.610157
-9.844431
4.021929
-13.498321
5.565248
-9.970161
-15.410306
-17.084854
5.482771
5.575767
9.822874
-10.721669
-15.500664
-9.826173
5.783065
5.694993
12.872266
-9.759663
-14.192080
-12.365140
4.477635
5.640606
11.767771
-11.018300
-11.881599
-19.517023
5.353095
5.484878
10.004721
-7.853518
-10.284806
-13.407002
12.970570
-11.799025
11.991811
-10.414181
-10.698777
-5.412431
12.793968
-2.937281
12.522268
-10.780590
-11.165065
-2.824936
8.071899
-9.419500
-10.164476
-3.370746
10.394857
-4.136329
6.326098
-1.553604
8.195925
1.295690
10.554653
2.482807
11.269224
1.053610
3.679724
10.532378
12.342391
12.170737
15.747170
-9.200239
-10.821332
3.873152
9.234762
-10.787485
-10.833061
-12.037465
-9.419931
15.219935
13.791715
19.062763
10.057019
5.929943
5.995452
-10.064077
-8.023214
-11.488161
-9.421801
12.740538
3.399065
-12.825887
-8.932008
14.177872
2.479476
-14.239244
-8.870290
15.709976
1.303997
-17.282045
-13.243864
14.517221
0.967793
-1.661826
-3.306638
11.543930
-5.345258
-17.014455
-10.533692
13.545455
-6.919232
-21.113249
-9.900769
24.296661
-11.442348
-17.168873
-9.997862
19.791333
-10.325246
-12.624173
-10.133124
21.250131
-7.693584
20.029780
-7.069362
21.309681
-5.093011
26.298233
-3.454995
23.931001
-2.980596
22.543282
4.205852
5.605989
-4.142145
20.469276
3.402762
3.987966
-5.252123
11.401714
5.716985
1.761593
-3.618855
22.246163
25.686843
10.136092
8.128570
3.114366
-3.823147
4.143662
0.940645
5.620257
2.536263
3.847196
2.320298
4.857895
1.184293
3.923164
1.551779
5.386062
3.609698
5.349174
6.556498
6.408467
8.637100
5.200786
8.735482
5.298453
14.157708
5.862907
13.928575
8.164555
12.040530
8.713715
14.509039
9.708004
9.207821
10.024522
13.113671
5.042379
5.690728
3.710668
4.520289
5.850684
2.701439
7.310983
1.565988
8.297821
6.620311
7.395089
0.730309
7.732010
6.502820
9.135714
1.828070
5.960470
5.961720
8.980628
2.390598
6.564055
6.103680
10.944605
1.770257
9.263659
8.394203
12.043340
1.563184
11.168172
1.454804
12.439676
-0.501523
13.088016
-1.160503
14.021258
-1.197843
12.435091
-1.910393
9.146911
0.510536
14.325888
-0.269285
15.957133
3.084994
15.172287
5.205705
15.074905
6.079139
8.314070
11.626702
20.385090
20.030681
4.518323
10.800300
4.810374
4.439710
-5.975046
-9.843363
-3.286252
-11.287523
0.041692
-11.220810
0.991647
-8.946508
1.715125
-6.744107
11.687510
8.419244
2.374689
-5.700831
17.804633
3.474518
0.754313
-0.760574
8.559420
1.019663
-1.027526
0.297359
4.065993
-3.001613
4.841886
-6.917056
11.249579
-8.173103
12.733460
-6.610418
11.771916
-4.658706
15.919866
-3.303358
15.141971
-2.709380
9.576195
-0.024571
7.418444
1.273827
8.371848
1.518687
10.974057
-1.184825
-3.137734
-2.822860
17.164680
-2.339321
16.800453
-3.687440
12.047771
-3.285623
10.351063
1.804896
12.891414
6.923239
12.164290
16.647164
12.645536
14.478860
14.497196
15.774370
12.184607
7.055316
7.474600
7.327866
12.386853
7.030247
12.731366
7.277445
14.802403
9.142644
15.183971
9.136949
14.006627
8.086554
-2.324342
-3.343359
-2.558576
-5.647627
-2.752547
-4.922826
-1.668143
-2.466912
0.546106
-1.964238
2.480257
0.486104
3.147511
2.310477
4.717257
4.292971
5.250970
5.415963
6.390999
6.383784
13.656351
14.858241
21.519894
20.608893
13.799491
17.803297
21.962722
24.519053
14.078812
17.959489
22.647200
28.390142
22.568153
19.265619
12.474560
13.870928
19.895943
33.727242
23.344397
16.822415
13.366329
12.100756
16.001427
30.129330
31.515665
16.189640
12.295949
26.474721
26.253851
26.636055
11.970014
22.823036
10.965266
17.665676
6.894808
15.217353
7.701800
13.223518
7.607372
10.673518
7.415399
8.056031
5.608973
6.719264
5.199382
5.676997
4.484923
6.542399
4.020895
7.535918
5.686100
7.039289
8.547135
1.567101
0.611207
2.302061
1.108241
1.922207
0.336732
0.547189
-0.316353
-0.781032
0.472561
0.204853
-0.503585
0.544667
-0.777810
2.967197
-1.980195
3.544155
-4.256224
3.229779
-8.790371
3.243066
-10.830505
1.934912
-12.979583
-0.196983
-12.698604
-16.306332
-12.423528
1.049292
4.381840
3.974309
6.884890
8.540433
-11.270338
-16.842024
-13.739503
4.635923
3.532143
9.996724
-11.266487
-15.286370
-15.243110
5.551093
5.272803
9.410058
-18.715848
4.220589
5.631920
8.380768
-18.239937
8.770010
-15.249736
-13.254249
-8.313171
11.490215
-5.562848
-2.864529
-3.970559
9.709894
-2.842921
10.694382
-3.794595
9.768831
-6.369396
6.080269
-8.203261
6.405857
-7.169693
8.170330
-1.797304
9.090027
1.275701
10.219579
0.527182
3.433104
7.973079
11.400521
10.664312
13.014937
12.849361
14.401278
5.533251
7.807765
6.516648
7.751368
-11.397750
-11.694106
13.685370
10.794083
7.349268
3.254931
-11.202565
-9.267921
13.771944
8.602198
7.949589
1.048971
-13.071614
-8.970961
12.564980
0.517617
-14.794026
-13.220292
12.952401
0.711919
16.460039
15.296402
12.857972
0.488287
0.313309
-6.714523
13.883460
-0.079696
0.002493
-7.617613
14.885173
-8.452028
-20.239542
-14.407564
15.507844
-16.415936
-17.982171
-13.973074
20.104852
-14.267000
-15.980127
-12.045466
21.951434
-9.130715
21.536106
-6.948755
20.457697
-4.272661
23.579369
-3.360987
26.403827
25.403458
25.205704
-2.429646
21.806044
1.650965
0.208313
-2.734419
28.562851
29.749392
21.969957
2.091654
1.021707
-3.203139
22.638553
25.571061
8.996839
5.284032
1.618322
-2.800846
-7.755994
-6.371878
21.560681
22.397237
9.112289
6.872364
2.668738
-4.487099
18.151365
18.968649
3.183980
0.440627
0.200722
1.763330
2.991236
1.338029
4.908383
0.127689
4.066280
1.465026
5.160727
2.772072
5.052874
5.301703
5.363304
7.113176
3.766034
12.741136
3.913290
15.525251
5.800268
13.372558
6.977288
10.215735
7.160328
11.564614
8.096570
7.569094
9.026647
8.093419
4.868581
4.072184
5.016620
3.466134
5.661507
1.694878
6.953449
0.399228
7.674009
-0.888759
7.350635
-0.110433
7.009856
0.888476
9.267743
1.372245
9.537437
1.141788
11.523213
0.357055
13.271986
-0.745759
12.028197
-1.457511
13.199213
-1.820887
12.212141
-3.861433
14.029659
-2.753453
13.148789
-1.963686
10.770551
1.302946
8.687181
5.691148
9.461319
5.872191
7.511671
8.004771
7.061485
11.435363
3.328235
3.627829
-1.636561
-10.394738
0.181078
-10.224844
1.155714
-8.533027
1.060748
-4.295461
0.003006
-2.687444
6.937293
4.637063
-3.449533
-4.336440
0.099619
-8.300851
6.430596
-8.774872
9.715674
-6.473780
13.066092
-3.763070
12.214236
-2.222512
10.662376
-0.864540
9.614477
4.388682
7.016232
3.373391
8.035773
2.739328
10.545747
0.233097
11.560677
-5.272154
12.880942
-5.738797
11.086696
-4.372748
11.212220
0.324622
12.755122
5.488138
8.138997
5.866480
16.315180
9.004836
17.158373
9.662925
15.896324
7.599566
14.915887
6.574299
15.593555
9.274565
16.383456
10.466921
15.558493
8.386285
17.591204
6.735776
8.676009
7.607188
-2.955880
-5.461053
-0.648323
-5.521316
1.902221
-4.685072
3.332570
-1.661256
4.033652
1.328709
5.250737
3.625742
6.238102
5.522991
6.241684
6.683473
19.983517
19.439846
23.348694
23.178885
19.944151
17.485428
18.315078
15.574042
15.944359
15.632679
11.732263
11.860029
10.389360
17.114838
11.253584
19.358821
8.352853
19.136662
5.864419
17.029716
5.396230
14.313387
5.819153
10.104087
7.396398
8.620749
6.001759
6.457449
5.120312
6.155865
3.742389
-0.797236
0.081812
7.960758
2.321042
-0.734405
-0.038654
7.175909
1.884213
-0.424872
-0.047612
5.517427
2.799310
-0.019987
-0.938886
1.617421
-2.219390
0.692365
-0.856697
-1.105632
-1.028371
-1.753525
-1.463065
-0.687574
-1.626489
0.757524
-2.110113
1.394698
-3.022420
0.204783
-5.697019
-0.308429
-9.945097
-0.946260
-11.970785
-0.842925
-11.512673
-2.826467
-14.203265
-2.163489
-17.486279
4.123240
4.027629
8.509559
-16.282691
3.909805
3.566272
6.758140
-12.878444
2.663681
7.114791
5.587693
-8.456035
2.680590
5.580586
5.594964
-7.633308
3.339496
2.955369
6.889414
-5.817942
-2.700710
-1.406711
8.576350
-2.299762
5.995776
-3.995209
7.758040
-6.624309
9.850745
-8.962013
7.601049
-7.971698
9.111459
-5.113286
8.973372
1.092132
9.862670
8.121442
16.109328
9.282275
12.270978
11.881895
13.074939
13.538345
15.828170
5.322362
2.354961
8.211605
1.896493
12.125324
11.245223
8.434108
-0.040491
11.524251
10.135817
6.973868
-0.372374
11.253583
9.143543
6.515712
-0.123176
11.639677
6.753855
5.368741
0.975082
10.615170
0.035766
-1.967086
-8.039724
13.294996
-0.254563
-0.847764
-11.679320
13.932073
-2.183336
-1.477364
-11.444553
14.770270
-16.014229
15.307496
-17.851999
22.191415
-10.606656
21.707316
-6.458919
21.772991
-4.235604
20.552197
-2.810305
23.332300
-1.438949
21.141366
-0.069751
0.045182
-0.964721
24.701656
2.234581
1.576556
-1.531342
23.339906
17.320355
8.295198
4.424405
-0.810632
-3.289157
-8.542720
-6.915119
18.514762
19.849693
8.973043
6.434914
-1.040252
-2.817928
18.295174
18.515393
7.136087
7.068756
-3.190128
-0.473690
16.840885
18.276251
-0.043327
0.559903
2.521417
1.303780
4.357786
0.580102
2.139332
0.649918
2.825649
2.470565
3.280545
5.856999
3.156351
7.271423
6.521267
5.887413
7.794309
14.318476
4.909250
7.591859
9.665748
13.968641
4.988998
12.524345
7.069594
15.502581
6.835197
9.950141
9.101790
12.633872
8.125547
8.929317
12.486257
11.831879
5.928599
1.121341
6.554901
0.691728
6.395897
0.007878
5.915292
-0.267090
6.596560
-0.747499
8.008770
6.764256
6.605529
-0.416061
7.870844
0.194110
9.383114
0.504385
9.867406
0.485181
10.488432
-0.369399
12.307804
-1.591580
11.540759
-3.214002
13.590489
-4.872933
12.539350
-5.544880
12.224831
-5.813067
12.720339
-4.079171
11.792169
-1.108056
7.912309
5.961616
9.108686
5.623931
6.822670
5.047584
7.792533
5.419159
3.321272
3.298027
-6.998814
-8.672444
-3.570834
-8.586739
-0.459574
-5.212844
-0.394001
-3.724810
-0.475282
-3.565397
-3.079069
-7.568969
3.063240
-7.598588
9.577359
-5.528877
10.606406
-3.424123
11.579032
-1.353129
14.320566
-0.144175
9.265248
1.573117
9.880372
4.101943
10.168921
4.016756
10.214552
4.377784
-6.861610
-9.079114
12.611159
4.244245
-1.520755
-7.752147
12.837557
4.722557
1.426565
-8.122148
12.425622
-5.318035
13.162454
-1.998084
14.946845
16.068099
14.837031
0.850826
14.250622
1.910767
15.060128
3.205247
14.741754
3.728739
14.417862
4.147950
17.270048
8.124059
17.038174
10.160695
15.877403
8.375452
17.439215
7.449894
-2.268589
-6.691036
1.118715
-6.210263
4.855719
-4.778753
5.491717
-1.995541
5.121477
1.127515
6.379933
3.973911
6.809483
5.875743
3.397563
3.031682
15.705766
14.926263
18.765600
14.554403
19.442668
16.389642
19.625777
17.967997
17.225430
14.915996
18.339618
17.838928
16.585141
15.148418
18.167340
15.864132
15.313408
15.552321
13.843029
17.475932
10.921546
21.227010
8.412782
18.223998
8.266413
17.122770
7.403244
12.427531
5.667477
8.236440
7.941539
7.076960
2.156942
8.298013
6.885453
4.225122
1.766269
8.526442
5.845211
1.268213
1.697065
5.527749
3.774434
0.003109
1.139912
5.281611
1.203435
-0.057015
0.590961
5.161202
0.609710
-1.015019
-0.365946
-3.329666
-3.887354
4.833225
-4.911377
1.183967
-4.052863
-2.287546
-1.659021
-3.364805
-3.413964
-2.723756
-1.492345
-2.653636
-2.424799
-0.980320
-3.285678
0.519796
-3.769954
0.618476
-4.833992
-1.363510
-6.829900
-7.844981
-7.701404
-4.287140
-9.534296
-8.532338
-7.320004
-6.256986
-11.898532
-4.681987
-13.605415
-2.856308
-14.771941
-3.792936
-18.128267
-5.403975
5.961536
7.189974
-15.561060
0.985260
4.177198
5.937048
-11.395911
1.791008
4.945976
4.225183
-9.912823
0.473568
8.990640
4.324228
-8.252747
3.605557
16.142418
6.487182
2.652111
7.621309
-1.014949
6.291905
-2.866825
7.033442
-6.081898
7.997782
-9.102036
9.947554
-8.366860
8.927368
-5.101868
3.293905
4.596245
9.079515
6.846103
9.967716
8.456920
11.082994
10.110056
11.920467
11.796986
14.099438
15.281813
19.967643
13.501419
15.191383
2.713417
3.036133
3.428096
2.428163
6.368146
-0.035383
7.280158
-1.158499
8.354079
-1.259632
7.694368
-0.016453
8.352200
4.960009
-3.382390
-10.523083
12.821813
2.846960
1.865253
0.117695
-2.858095
-12.113370
14.550542
-1.030467
-1.458357
-11.536802
13.817956
-2.856122
-2.893422
-15.551103
13.609210
-3.542480
-3.899777
-18.351037
12.794515
-3.719232
-3.060744
-14.441633
21.141941
-4.118185
-3.434834
-7.448451
-4.176561
-7.004662
22.211194
-4.997773
20.056596
-2.655624
19.953391
-2.331588
-2.146344
-0.341102
17.691338
-1.386564
-0.375896
2.986909
17.909005
-0.017671
-5.117441
-0.245875
16.376025
16.320773
7.259776
2.647314
-4.381719
-4.493678
15.058242
26.073817
9.638424
4.768233
-3.087923
-6.641650
14.757919
17.953576
16.600449
17.960416
4.786969
5.436831
-4.936631
-4.205164
16.021319
17.222506
16.113680
17.409521
-1.987226
-2.104293
1.654977
0.084049
0.578961
2.583770
2.041704
3.092700
4.480826
1.933732
5.053188
3.622483
6.450068
7.722529
9.334972
14.654577
10.210770
16.478478
3.982669
15.601069
9.122197
13.773583
6.610973
10.461092
9.834848
19.035774
7.490421
7.210255
13.370794
0.157029
7.152310
-1.144268
6.854834
-1.229957
6.300582
-0.193512
6.650381
0.014465
5.458259
0.021900
7.025926
-0.018637
8.870259
-0.058509
9.040066
-0.365095
9.119708
-1.757081
9.815996
-2.957677
9.458853
-4.340159
12.333612
-5.021289
13.099918
-6.803502
13.383425
-8.670870
14.067558
-7.400292
11.368048
-3.083334
8.659840
2.027512
9.157990
3.499337
5.545569
2.444402
4.697556
3.814123
1.627110
-1.312743
-1.232860
-1.998709
8.515618
-2.945226
10.959858
-1.740335
10.310609
12.442386
12.048427
-0.322038
8.941990
12.417086
15.565977
-0.286298
9.149479
-0.360707
9.143194
1.782942
9.497659
5.013941
11.290735
5.514266
-5.992000
-8.585691
11.997963
6.082903
-4.593478
-7.665816
14.575008
6.505804
0.298728
-7.275682
13.624645
6.710909
3.025712
-6.148701
13.147104
-3.572367
15.538379
18.821892
13.630062
1.334061
13.208979
2.156100
13.474700
1.808630
14.857753
2.593870
14.124635
5.464457
13.952560
6.704977
16.537855
8.699488
16.148551
9.328031
16.815638
16.997583
8.527934
9.468535
-2.318566
-1.393279
-0.952763
-4.496416
3.253779
-4.100270
8.243621
-1.646759
8.825093
0.355726
7.867461
1.850340
7.653619
4.388531
6.969824
6.267870
4.518821
3.917552
4.291593
4.087813
5.068041
2.293962
4.793086
3.395312
7.277171
10.846878
7.878633
12.888104
18.649456
16.092467
20.124160
14.413154
20.148007
14.298107
19.388326
13.160832
19.282859
12.797409
17.497396
12.509979
18.264020
17.307753
16.808155
16.616391
17.069750
15.268749
16.442502
14.340778
11.838480
14.208126
11.609989
19.107115
9.251651
14.915817
8.995933
13.409040
7.391040
9.766355
5.875006
7.209367
1.944787
7.584755
1.526023
7.611292
5.441111
4.167869
1.663404
4.226369
3.695412
3.093819
1.125266
2.621913
0.436356
2.428730
-6.634471
4.167927
-6.731173
4.502109
-5.627458
-5.464950
-2.210779
-2.032441
-2.793197
-2.000520
-4.343975
-3.131974
-2.887451
-0.022331
-4.219194
-0.706800
-5.477951
-6.829682
-6.908593
-3.181309
-7.210044
-7.052694
-9.436423
-9.514518
-11.191407
-11.367565
-7.229195
-5.664585
-14.596434
-11.485252
-7.203028
-4.068033
-15.051610
-11.234199
-8.206317
-4.746740
-17.714835
-6.042626
-7.909970
-7.587731
-5.420995
-7.043007
-3.782860
-2.788475
6.507854
5.288472
-3.103804
-0.183724
0.833264
5.021589
3.022776
7.365458
0.688287
7.399772
-2.290916
-2.548811
-2.117707
7.560543
-3.118275
7.350663
-8.087524
-0.389589
1.946922
4.440248
-8.828371
-1.104084
-6.690241
-2.884393
7.770684
9.472832
7.751253
9.328514
10.278242
11.034452
11.634500
13.322678
13.630732
13.854808
18.290871
17.407914
5.200843
5.061672
6.234281
4.921984
4.631189
5.203408
4.209796
2.023899
3.671293
2.743084
7.607634
6.687926
6.633437
5.357719
7.227646
6.277438
9.082220
9.593394
11.013007
11.638809
5.562595
2.923373
9.739400
5.808702
-8.126740
-10.119627
8.729747
4.004409
-3.525291
-11.615145
11.190685
2.784943
1.446093
-0.470530
-3.244402
-11.108338
11.574579
2.161568
1.443616
-1.827748
-2.132045
-15.501024
12.978187
-2.856660
-2.011733
-17.783303
19.315239
13.719573
11.619693
-3.511430
-1.876618
-7.433622
-11.680843
-16.074000
20.166372
-4.816657
-2.356328
-6.487333
-12.477060
-13.711566
20.643660
-6.133532