# vtk DataFile Version 1.0
vtk file 5cpk_4:D:D_model1
ASCII
DATASET POLYDATA

POINTS 9044 double
-1.942000 -5.031000 -15.536000
-0.678000 -5.155000 -15.948000
-1.916000 -5.068000 -14.699000
-0.272000 -5.086000 -14.940000
7.021000 -4.861000 -10.790000
9.360000 -5.234000 -10.651000
5.326000 -4.928000 -9.735000
9.945000 -5.052000 -9.639000
4.943000 -5.004000 -8.823000
9.924000 -4.905000 -8.810000
12.302000 -4.988000 -8.888000
13.033000 -4.997000 -8.688000
14.225000 -5.030000 -8.842000
16.165000 -5.045000 -8.580000
5.389000 -5.027000 -7.830000
8.923000 -4.981000 -7.688000
14.954000 -5.058000 -7.851000
16.162000 -5.007000 -7.740000
17.325000 -5.009000 -7.813000
18.004000 -5.012000 -7.704000
6.239000 -5.097000 -6.862000
8.059000 -4.890000 -6.675000
18.290000 -5.003000 -6.808000
18.847000 -4.986000 -6.608000
-15.097000 -4.811000 -4.759000
-12.570000 -5.274000 -4.848000
9.141000 -4.943000 -4.816000
13.056000 -5.131000 -4.594000
-15.592000 -5.028000 -3.878000
-11.800000 -5.234000 -3.715000
8.488000 -4.948000 -3.668000
13.321000 -4.916000 -3.855000
-15.970000 -5.146000 -2.765000
-11.058000 -4.980000 -2.551000
8.638000 -4.936000 -2.505000
13.652000 -5.234000 -2.754000
-16.045000 -5.028000 -1.752000
-11.140000 -4.953000 -1.585000
8.719000 -4.876000 -1.780000
13.834000 -4.998000 -1.631000
-15.975000 -5.028000 -0.752000
-11.140000 -5.120000 -0.570000
8.083000 -4.811000 -0.767000
14.840000 -5.126000 -0.697000
-15.963000 -5.028000 0.248000
-10.714000 -5.207000 0.219000
6.852000 -4.792000 0.196000
15.912000 -5.195000 0.359000
-15.918000 -5.028000 1.248000
-7.853000 -5.195000 1.223000
5.181000 -4.904000 1.238000
16.057000 -5.028000 1.248000
-16.262000 -4.904000 2.059000
-6.785000 -5.195000 2.265000
3.267000 -5.028000 2.374000
15.886000 -4.863000 2.286000
-18.671000 -4.807000 3.344000
-6.702000 -4.928000 3.148000
2.900000 -5.028000 3.248000
15.400000 -5.086000 3.402000
-19.939000 -4.957000 4.400000
-6.624000 -4.999000 3.991000
3.046000 -4.928000 4.148000
14.237000 -4.916000 4.207000
-20.619000 -4.879000 5.423000
-6.108000 -5.224000 5.168000
3.463000 -5.064000 5.011000
12.359000 -4.992000 5.239000
-21.488000 -4.814000 6.413000
-9.809000 -4.885000 6.300000
-7.771000 -5.185000 6.391000
-6.745000 -5.011000 6.135000
4.086000 -5.105000 6.132000
12.195000 -4.928000 6.148000
-21.616000 -5.040000 7.148000
-10.570000 -4.831000 7.144000
4.045000 -4.889000 7.108000
11.949000 -5.131000 7.232000
-21.450000 -4.966000 8.000000
-10.721000 -4.908000 8.081000
2.816000 -5.104000 8.251000
11.954000 -5.028000 8.248000
-19.665000 -5.100000 9.263000
-10.809000 -5.053000 9.177000
1.966000 -4.946000 9.250000
12.373000 -5.129000 9.254000
-19.218000 -5.246000 10.251000
-10.802000 -5.028000 10.248000
1.877000 -5.096000 10.081000
13.254000 -4.936000 10.366000
-19.588000 -4.844000 11.140000
-10.939000 -5.005000 11.295000
2.200000 -5.029000 11.005000
13.075000 -4.847000 11.375000
-19.779000 -4.933000 12.210000
-12.103000 -4.974000 12.179000
8.349000 -5.168000 12.315000
12.239000 -4.914000 12.268000
-19.630000 -5.128000 13.236000
-13.568000 -4.771000 13.227000
-18.961000 -5.195000 14.236000
-13.210000 -5.232000 14.231000
-17.646000 -5.250000 15.205000
-13.221000 -5.076000 15.098000
-16.658000 -5.123000 16.094000
-15.824000 -4.975000 16.192000
-14.751000 -5.275000 16.254000
-14.063000 -5.089000 16.099000
-21.184000 -5.148000 6.034000
-21.165000 -4.916000 8.358000
-20.352000 -5.076000 5.056000
-20.341000 -4.928000 8.835000
-19.267000 -5.196000 3.794000
-19.408000 -4.989000 9.654000
-19.348000 -5.108000 10.902000
-19.364000 -4.861000 13.797000
-18.160000 -5.053000 3.057000
-18.248000 -4.861000 14.641000
-17.389000 -5.028000 2.658000
-17.221000 -5.194000 15.572000
-16.576000 -5.136000 2.381000
-16.299000 -5.087000 16.281000
-15.397000 -5.068000 -4.476000
-15.432000 -5.011000 16.096000
-14.446000 -5.057000 -5.128000
-14.353000 -5.225000 16.267000
-13.320000 -5.025000 -5.229000
-13.133000 -5.116000 12.989000
-13.461000 -4.914000 13.926000
-13.452000 -5.248000 15.717000
-12.225000 -5.097000 -4.528000
-12.292000 -5.233000 12.476000
-11.291000 -4.985000 -3.245000
-11.522000 -4.891000 11.844000
-10.222000 -5.070000 0.433000
-10.230000 -5.003000 6.821000
-9.350000 -5.002000 0.614000
-9.326000 -4.880000 6.146000
-8.506000 -5.028000 1.032000
-8.411000 -4.876000 6.062000
-7.422000 -4.861000 1.542000
-7.187000 -5.207000 6.367000
-6.458000 -4.949000 4.493000
-6.356000 -5.119000 5.946000
-1.458000 -5.105000 -16.057000
-1.200000 -5.079000 -14.315000
-0.490000 -5.007000 -15.524000
-0.386000 -5.129000 -14.567000
2.456000 -5.019000 8.560000
2.587000 -4.769000 11.398000
3.729000 -5.028000 1.949000
3.674000 -4.878000 5.422000
3.553000 -5.049000 7.762000
3.511000 -4.949000 11.498000
4.508000 -5.037000 1.491000
4.411000 -4.914000 11.969000
5.713000 -5.028000 -10.100000
5.718000 -5.096000 -7.468000
5.656000 -4.968000 0.712000
5.625000 -5.107000 11.949000
6.536000 -5.195000 -10.481000
6.681000 -4.977000 -6.646000
6.423000 -4.997000 0.358000
6.777000 -4.986000 11.825000
7.702000 -5.028000 -11.131000
7.408000 -5.134000 -6.637000
7.471000 -4.985000 -0.278000
7.767000 -4.904000 11.856000
8.598000 -5.028000 -11.140000
8.473000 -5.042000 -7.285000
8.774000 -5.223000 -4.250000
8.585000 -4.870000 -2.867000
8.480000 -5.015000 -1.267000
8.850000 -5.090000 12.524000
9.715000 -4.852000 -10.425000
9.456000 -5.051000 -8.301000
9.816000 -4.960000 -5.019000
9.757000 -5.031000 12.774000
10.777000 -5.002000 -5.007000
10.711000 -4.928000 12.867000
11.777000 -5.026000 -5.108000
11.555000 -5.059000 12.673000
12.733000 -5.017000 -9.214000
12.533000 -4.967000 -8.468000
12.719000 -4.903000 -5.041000
12.708000 -5.131000 4.912000
12.704000 -5.079000 9.541000
12.539000 -5.054000 11.810000
13.571000 -4.852000 -3.061000
13.671000 -5.234000 4.508000
14.813000 -5.060000 -9.396000
14.482000 -5.048000 -8.103000
14.486000 -4.926000 -0.884000
14.688000 -4.895000 4.034000
15.675000 -5.039000 -9.400000
15.517000 -5.005000 -7.593000
15.423000 -4.932000 -0.286000
15.619000 -5.252000 2.791000
17.727000 -4.993000 -7.999000
17.624000 -5.008000 -7.329000
18.694000 -4.981000 -6.946000
18.494000 -5.009000 -6.339000
-20.155000 8.749000 -5.817000
-20.408000 11.419000 -5.867000
-19.223000 8.622000 -5.765000
-19.541000 15.722000 -5.893000
-18.415000 8.343000 -5.628000
-18.606000 15.548000 -5.732000
-17.483000 7.595000 -5.752000
-17.154000 13.765000 -5.686000
-16.600000 7.263000 -5.789000
-16.233000 13.683000 -5.846000
-15.525000 -1.723000 -5.738000
-15.171000 -0.542000 -5.766000
-15.440000 6.763000 -5.533000
-15.150000 14.128000 -5.655000
-14.488000 -2.191000 -5.699000
-14.368000 -0.243000 -5.871000
-14.273000 5.740000 -5.585000
-14.322000 14.546000 -5.786000
-13.617000 -2.468000 -5.695000
-13.525000 0.575000 -5.750000
-13.291000 5.252000 -5.843000
-13.205000 15.474000 -5.851000
-12.462000 -3.627000 -5.761000
-12.399000 1.315000 -5.852000
-12.289000 5.380000 -5.652000
-12.177000 16.096000 -5.677000
-11.463000 -3.694000 -5.658000
-11.518000 1.394000 -5.686000
-11.336000 5.609000 -5.908000
-11.408000 9.745000 -5.752000
-11.485000 12.539000 -5.772000
-11.433000 16.089000 -5.605000
-10.520000 -1.385000 -5.922000
-10.421000 0.364000 -5.718000
-10.173000 6.116000 -5.850000
-10.615000 9.150000 -5.738000
-10.520000 13.557000 -5.885000
-10.499000 15.338000 -5.649000
-9.490000 6.603000 -5.820000
-9.571000 8.347000 -5.820000
-4.378000 -16.798000 -5.768000
-4.512000 -15.369000 -5.771000
-3.381000 -17.419000 -5.848000
-3.420000 -13.544000 -5.985000
-3.530000 3.306000 -5.532000
-3.309000 5.467000 -5.814000
-2.438000 -17.392000 -5.974000
-2.425000 -12.858000 -5.929000
-2.371000 2.837000 -5.543000
-2.192000 7.135000 -5.883000
-1.272000 -16.708000 -5.785000
-1.532000 -12.567000 -5.931000
-1.351000 -10.402000 -5.533000
-1.232000 -8.507000 -5.711000
-1.365000 3.374000 -5.835000
-1.404000 7.746000 -5.800000
-0.358000 -16.436000 -5.956000
-0.150000 -7.866000 -5.675000
-0.581000 3.826000 -5.751000
-0.384000 8.381000 -5.711000
0.746000 -15.729000 -5.722000
0.768000 -7.482000 -5.820000
0.423000 4.786000 -5.855000
0.724000 8.593000 -5.593000
1.781000 -15.379000 -5.811000
1.711000 -7.344000 -5.652000
1.518000 5.509000 -5.686000
1.711000 8.360000 -5.756000
2.643000 -14.923000 -5.775000
2.552000 -7.222000 -5.773000
2.455000 5.456000 -5.586000
2.648000 8.623000 -5.773000
3.459000 -15.164000 -5.706000
3.566000 -6.762000 -5.798000
3.444000 5.504000 -5.710000
3.688000 9.094000 -5.524000
4.611000 -15.376000 -5.818000
4.451000 -6.450000 -5.885000
4.753000 -1.636000 -5.912000
4.643000 4.374000 -5.788000
4.368000 5.289000 -5.761000
4.762000 8.644000 -5.876000
5.705000 -15.241000 -5.970000
5.421000 -6.525000 -5.638000
5.689000 -2.209000 -5.662000
5.590000 8.659000 -5.895000
6.848000 -13.897000 -5.638000
6.583000 -7.640000 -5.736000
6.750000 -2.776000 -5.616000
6.430000 9.606000 -5.845000
7.711000 -13.746000 -5.600000
7.567000 -8.700000 -5.474000
7.580000 -3.405000 -5.763000
7.644000 11.081000 -5.681000
8.460000 -13.363000 -5.852000
8.632000 -9.620000 -5.615000
8.526000 -4.421000 -5.790000
8.484000 11.373000 -5.892000
9.504000 -12.379000 -5.761000
9.559000 -10.547000 -5.718000
9.429000 -4.545000 -5.694000
9.596000 11.224000 -5.704000
10.444000 -4.530000 -5.775000
10.611000 11.271000 -5.752000
11.444000 -4.675000 -5.787000
11.449000 11.599000 -5.835000
12.444000 -4.644000 -5.795000
12.532000 12.570000 -5.683000
13.536000 -4.561000 -5.716000
13.640000 12.482000 -5.697000
14.624000 -4.344000 -5.966000
14.714000 -0.496000 -5.750000
14.616000 2.219000 -5.896000
14.511000 12.269000 -5.852000
15.663000 -3.804000 -5.739000
15.775000 -1.386000 -5.645000
15.512000 2.412000 -5.773000
15.557000 12.717000 -5.912000
16.639000 -4.272000 -5.865000
16.511000 -1.774000 -5.875000
16.428000 2.732000 -5.713000
16.834000 14.111000 -5.588000
17.611000 -4.558000 -5.797000
17.444000 -1.805000 -5.824000
17.584000 3.657000 -5.911000
17.605000 13.729000 -5.826000
18.690000 -4.753000 -5.879000
18.444000 -1.704000 -5.840000
18.529000 4.410000 -5.642000
18.676000 12.799000 -5.699000
[...]
POINT_DATA 9044
SCALARS Potential double
LOOKUP_TABLE default
1.106603
4.510041
0.539234
3.017301
3.291426
8.763206
5.203442
11.632589
5.124160
8.205807
9.520303
9.562687
9.623076
9.085881
4.132928
4.644725
10.513413
8.808955
10.100621
9.701420
3.823689
3.302560
9.163114
9.607923
15.432904
13.905752
1.701522
12.416654
12.906079
13.436207
0.409916
13.895247
12.001380
10.832609
-0.131840
18.186241
11.509040
9.783273
0.657679
15.510096
10.174508
8.661493
2.010976
20.776300
9.002320
6.390064
2.112332
12.470980
7.440174
5.012854
1.757373
9.202061
8.223013
4.465508
2.598068
8.501371
7.558571
4.333826
3.196846
9.656768
6.774962
4.151836
3.160224
13.852433
5.310654
4.176314
2.894362
9.000864
5.116736
2.928031
4.036536
4.598993
1.238825
8.107458
5.434181
2.693984
1.397802
4.945093
7.840862
4.040897
3.099836
2.431199
14.433439
4.070670
2.968963
3.783818
12.491159
3.889462
3.577492
5.521015
10.582602
3.777048
3.837828
5.928665
7.965195
3.369010
7.770058
5.133494
7.492242
3.210336
10.001994
3.214297
8.352024
3.483931
5.251872
4.366004
3.272197
3.263687
5.499457
9.335663
5.597752
14.163179
7.591212
12.959964
11.183070
8.416657
8.421390
12.218882
9.875133
5.909137
8.151979
5.590202
15.453363
3.148906
14.814770
3.703499
13.365955
3.452417
3.452307
3.215830
14.466185
3.571717
11.289240
3.251792
5.353105
2.886118
5.985228
3.349334
4.650177
4.001069
5.035848
3.892389
4.493815
4.517777
2.455826
0.850476
4.129384
2.202402
2.644729
3.522546
2.131819
2.350173
2.411138
3.301714
1.622161
3.703151
4.791894
3.513951
1.733225
4.343854
3.445829
4.223890
2.042097
5.967211
4.103437
3.686762
2.063603
8.141559
5.930334
3.870504
0.648814
-0.023269
1.217514
7.894653
14.851342
5.893211
3.172078
11.544133
4.925421
7.530962
7.336114
5.696328
10.007585
9.303258
9.057627
11.738791
5.012105
5.496915
14.964524
12.925967
10.003175
9.915681
19.480280
12.959203
10.204681
9.864139
17.036886
8.671425
9.362397
9.367046
9.409448
10.717622
11.739142
16.063997
10.811471
7.684654
8.502227
7.457719
6.464684
9.983285
4.822373
9.326100
8.436375
7.505428
7.117149
10.160886
8.016825
6.740021
8.711645
12.432853
7.266709
7.980908
6.090304
13.422426
10.134704
16.321871
3.916741
16.731216
9.431817
10.182096
1.509070
3.708192
9.931033
15.931391
3.260837
2.761179
-3.218249
0.875574
15.238792
11.894191
-5.049595
-3.659569
11.368215
11.819732
10.835345
10.502118
3.037174
0.317391
10.210425
8.888062
3.699202
-0.586764
8.908139
7.425632
6.374072
5.015594
2.515143
-0.514002
8.494606
3.803284
1.747015
0.094672
6.631319
3.894574
1.207391
-0.246905
5.419031
2.957251
1.772000
-0.382745
3.154826
2.098649
2.364223
-0.895062
4.270154
1.851095
2.534172
-1.783228
2.040980
2.095831
4.349268
2.730002
2.932688
-0.645162
0.763772
2.847021
3.691408
-1.805584
2.562061
2.965522
2.680400
-1.579227
3.864285
3.427126
0.477688
0.322783
3.946963
4.017990
1.220158
0.158718
5.247044
4.585998
2.228610
1.329448
4.424770
2.413699
7.392544
3.395133
8.675443
6.739966
12.672688
5.674417
14.084772
2.870669
-0.080285
3.930992
19.681980
4.156669
1.295274
3.542369
14.797934
3.945245
2.815430
4.979339
12.709970
6.878772
3.994328
4.756114
9.871001
7.012500
8.533958
2.980819
11.019471
7.872990
3.656072
2.381962
6.051981
11.171599
6.365582
12.563143
12.628845
11.342638
5.904697
13.723527
5.699863
11.753157
4.002807
15.315236
-0.251797
18.207671
18.109539
12.559398
13.487390
8.917547
0.941382
12.092264
10.764546
8.122638
1.553667
13.404042
10.217624
7.719844
1.756578
15.487478
10.739036
7.949447
1.804670
14.382101
9.640372
7.168268
1.936529
14.308844
6.936194
5.870406
2.261354
11.205992
6.885826
5.793941
2.336061
9.568169
8.056496
5.292999
3.255432
9.591520
7.633977
5.472560
3.641661
9.846906
6.009113
4.496173
3.395223
7.876927
5.484733
4.627119
2.308126
7.339814
4.403371
1.296695
2.126713
6.460329
5.194896
2.732414
3.092564
4.208762
7.947382
4.224803
3.445455
3.188801
12.199297
4.269715
3.245911
4.766588
11.886090
4.617544
3.804281
7.406242
10.893827
4.663036
4.019408
5.540704
9.824785
2.722877
3.889816
5.415617
7.302622
5.624943
7.719158
3.158500
9.827559
2.984295
5.378341
3.269479
5.951325
8.058149
6.011721
10.424288
10.321601
8.692168
6.185481
7.776137
8.122871
9.009473
8.277567
5.914752
8.188349
4.381268
13.378275
3.179680
11.875031
3.207991
11.859321
3.001927
11.517520
3.759296
10.828216
4.311523
8.691859
1.643411
8.513654
3.562264
4.617541
4.629909
6.421057
5.417152
3.075722
4.197261
3.522182
3.913477
3.223765
2.846698
2.595519
3.701945
2.649762
4.165330
6.429529
5.546161
2.613177
4.963954
5.225800
4.790295
2.358610
5.301803
6.522909
1.880093
2.091903
6.784664
8.659766
1.963214
2.054382
5.585299
16.096885
5.858154
9.560563
7.261609
9.977204
6.119795
9.062088
9.337539
4.644553
4.803978
8.884948
12.475781
14.440597
12.128791
6.306386
6.802637
9.225385
14.973010
14.156329
10.962342
10.558272
17.911543
13.013007
10.497362
11.718921
17.538976
11.922585
18.001131
10.150295
16.146700
14.077817
11.330450
15.015738
14.198370
5.932354
10.903260
12.114685
9.250782
7.565438
9.771572
18.878526
17.571796
11.630308
8.850736
10.110495
10.276474
14.767350
7.708626
11.552602
10.992437
16.366303
8.014522
7.931055
12.069839
12.732054
10.535110
5.005226
16.747101
10.403120
5.761104
2.073579
3.836410
8.960918
17.023866
6.937716
4.429225
-1.781432
-0.855897
13.003175
12.316201
1.393474
-0.039642
2.826583
-1.618769
3.313511
-2.205577
10.257892
8.591573
5.985845
4.183204
2.869576
-1.634322
9.214917
7.987452
9.114712
3.229783
1.331804
-1.181564
7.930267
3.116803
-0.033188
-2.135732
7.134125
2.747431
1.018075
-2.078863
-7.530486
-6.915818
4.972900
1.524349
2.363123
-4.397017
4.732352
0.938751
3.808070
3.621450
2.827103
-3.091209
4.641458
1.993169
3.774093
-1.755341
4.182040
2.493785
2.754703
-1.894057
3.772530
1.926616
2.521188
0.399912
4.807170
1.461128
1.442047
0.973336
5.279638
0.589692
1.324511
0.481863
5.088608
2.345076
1.876048
0.700236
6.271905
5.801367
3.798834
2.332618
6.130092
4.808116
8.048613
6.147997
8.751747
5.402974
12.043725
5.155923
12.654582
2.159575
2.608890
4.453730
3.581093
4.587426
5.450261
4.296472
17.052013
15.539727
3.550643
2.618848
2.901000
2.326196
10.189376
9.880500
10.872325
9.028727
7.178681
11.558514
6.553724
17.020663
6.101797
17.785815
6.068296
13.173970
4.967206
20.546208
8.554729
7.009578
1.753765
12.787952
11.598125
6.010244
0.734047
9.631359
19.365793
13.770521
10.122546
5.420160
1.613871
11.210137
10.198217
5.163647
1.935681
13.451175
10.556101
6.173834
2.218537
10.347497
10.249542
10.507237
1.732512
12.526171
8.495049
6.113958
2.311769
11.877922
7.726736
5.318373
2.641059
10.622484
8.479354
5.037846
3.226143
9.157925
7.543549
5.663685
3.224656
8.753374
5.324671
5.439101
3.607082
6.951326
5.647477
4.165536
2.512094
5.880172
5.422708
3.069116
2.285997
4.089303
5.802556
3.370102
3.633099
2.541818
9.607435
3.568281
4.239979
2.426584
10.316060
3.834235
3.473886
4.112313
11.791475
4.638771
3.724975
4.875055
11.611736
3.362955
4.004747
5.109580
10.619542
1.896681
3.682188
4.972167
5.653396
4.802539
8.796361
1.064523
5.629753
1.367536
5.748410
7.935904
11.296695
10.293619
5.235008
9.867682
10.787014
8.966595
6.676424
6.922384
8.015321
3.572811
10.040967
8.830536
8.120015
2.613710
11.526017
2.242195
9.184643
2.904315
9.568583
3.712669
8.414523
4.229723
7.599425
4.020947
5.644572
2.452962
6.507019
4.437079
7.201536
6.814354
3.697763
4.008434
4.180731
4.074125
3.509260
3.164397
2.915989
3.580417
3.194651
3.656524
2.612575
4.561606
6.732794
3.907137
2.514119
4.561698
12.565852
0.671994
1.867860
3.901087
10.464586
3.667256
9.396020
4.771384
9.496172
11.144552
11.522398
6.049437
7.669887
5.422376
6.787789
7.590033
4.704720
4.806170
7.726096
8.574459
10.261189
12.803579
9.731982
8.491604
8.765534
12.157773
11.931161
8.587972
10.283179
16.336346
12.669321
8.246863
12.733386
14.681804
16.873159
19.724671
11.305783
19.412360
12.667343
10.730638
9.041054
9.521346
10.044758
11.132760
10.574053
8.454990
8.841809
10.621572
14.277652
8.390267
9.961732
9.782516
13.312251
8.162006
15.345443
9.868099
14.886308
7.344573
10.555939
11.824458
18.994653
11.800984
12.026556
0.672877
0.381287
2.291235
9.149340
10.572685
9.716395
2.624544
2.751103
2.795023
3.298349
-0.835023
4.940072
-1.841648
1.937060
-0.411718
0.650926
0.292753
2.433648
-1.226460
3.214807
-2.385234
2.206727
-2.170415
11.519096
9.018749
4.128628
2.421885
1.111886
-1.692183
8.506103
2.208669
-0.429434
-6.249853
8.264554
2.258156
-0.068983
-6.499331
7.122577
3.199589
0.730515
-7.810696
5.314364
3.431375
3.619371
3.379539
2.214164
-4.852492
5.965420
3.814349
3.198205
-3.500914
4.603289
3.640961
2.505954
-1.623554
5.147427
1.708481
2.238074
1.309785
5.837872
0.179339
1.880243
2.241174
6.178658
1.224728
5.703672
0.946527
6.827334
5.752410
4.867335
3.096715
11.718364
6.345580
15.097209
5.766106
12.376122
16.617551
10.716709
5.056048
10.219693
3.633014
9.899069
2.758095
3.797148
2.766272
3.816910
4.268671
3.902614
2.748008
3.657708
-0.251843
-0.048269
1.478265
9.907492
5.818743
8.600537
4.855387
6.615032
5.246615
5.420319
11.267469
6.074665
14.059202
5.354546
9.047283
4.289725
11.816810
8.768797
4.639419
4.083074
10.287291
8.590638
3.948552
4.074206
9.770027
8.713072
3.391628
3.402740
8.956071
7.851423
4.751224
2.394870
9.038072
8.567670
4.986021
2.320078
10.792204
8.784120
5.956716
2.767464
7.031620
9.607805
6.487759
2.685346
10.896813
9.430862
6.176380
2.803066
9.457679
7.970967
5.237333
2.842711
8.308716
7.255505
6.342767
2.609290
7.946356
7.104004
6.388076
3.548391
6.838496
6.843162
5.448728
3.725447
3.102514
7.704141
4.325027
3.629532
1.196319
9.331420
4.282481
3.883089
-0.465515
10.940138
3.710626
3.823512
0.230160
10.622010
3.957682
3.687106
4.763517
13.564047
4.689323
3.400322
7.569255
10.843175
3.493542
3.947117
6.819917
8.868874
1.888176
4.436061
5.217868
9.013778
0.775346
5.571877
4.995525
4.987642
1.832502
6.161942
9.766467
12.298631
8.895069
6.897153
8.138528
8.552094
9.387933
7.801119
3.607467
8.917344
1.466801
8.138588
1.305751
6.703211
3.397193
6.062066
3.881407
4.644672
4.656368
4.985105
3.769614
4.127972
4.684103
3.465674
5.907790
5.089065
4.067299
3.160413
4.362867
3.029302
4.149767
3.976457
2.898920
2.618993
3.772802
3.508119
4.732873
7.053564
4.821732
10.302337
4.302112
8.962516
4.891274
7.656052
4.745077
7.535652
5.736649
7.134759
-0.056492
0.768318
4.626333
4.926085
4.421499
8.604846
5.720809
6.630613
5.061717
7.439266
9.946937
10.962862
6.302057
9.382392
11.952905
10.979919
8.145967
9.985323
12.518431
13.036911
10.452113
10.129769
9.896565
12.346342
12.037361
9.387110
9.494357
9.304543
8.711786
8.782868
10.126548
11.204886
12.128273
13.567595
13.798829
9.874010
11.162943
9.875288
9.847156
13.056986
9.692299
7.882995
9.849596
11.885275
9.185787
15.640221
10.259047
11.172561
11.672598
14.608743
11.143954
11.156824
1.185188
10.821159
10.372495
10.759180
0.338444
4.457442
0.561194
3.930128
-0.776357
4.491456
-0.512494
5.167374
-0.435143
4.534759
0.645927
2.280680
2.588558
3.687372
-0.602196
4.262890
-1.816255
12.633550
12.677718
3.219921
-1.659471
11.576962
9.044680
2.199656
-2.072982
10.870767
5.255022
0.853807
0.116409
0.514307
-2.766213
8.105436
1.608955
-0.653977
-3.049146
7.235841
3.465303
0.488453
-5.587855
6.460786
3.486710
3.186291
-8.099617
6.639089
3.658692
2.466159
-5.275083
5.297706
3.241853
2.515870
-1.633065
5.458987
1.737111
2.038645
1.384541
6.287793
0.499253
1.791010
3.399005
6.242361
-0.959227
1.128795
3.972119
5.655352
3.900306
5.593729
13.188176
10.492677
7.346027
15.287665
5.213975
12.715631
4.918311
10.840531
3.182004
7.787226
-1.729391
-1.436647
1.203465
5.518394
0.769904
0.827503
0.894353
2.804591
0.182218
7.866837
7.281598
6.843274
7.486233
7.747426
5.783555
6.288534
4.300074
5.707091
3.858387
4.618562
4.163380
4.055448
3.450566
5.166059
3.462325
3.633433
2.556930
4.436979
3.507049
7.690261
3.046847
3.769748
3.620017
8.242710
3.257192
3.967186
4.286955
9.193065
2.407813
3.780194
4.150968
9.150994
3.703181
2.613539
6.595048
9.774210
4.758453
2.216021
7.764834
10.183078
5.958155
2.194046
8.917511
9.334725
6.533227
2.519876
6.518224
9.936144
5.912238
3.282199
7.735205
6.556950
5.538811
3.368332
7.244598
7.601013
6.425191
3.188503
6.524771
7.851806
5.908437
3.461086
4.559265
8.641136
5.738613
4.259836
1.408325
8.063295
5.320926
4.556784
-2.099158
10.110923
5.813720
4.529200
-2.694255
8.494054
4.056199
5.243872
5.515288
4.883057
-0.972253
8.170169
4.105440
4.803833
2.436943
8.792598
4.745965
4.186038
7.217696
9.303809
4.362087
4.268106
5.832106
8.988483
4.855090
4.736255
4.858061
6.542295
3.815660
4.719108
5.488504
9.186921
10.319044
8.333751
8.054376
8.532697
9.886421
7.851407
5.655461
8.067150
7.323289
6.286266
3.818795
7.431610
3.340018
6.772510
4.262569
4.656386
4.680237
2.919453
4.460406
2.684970
3.746965
2.378508
4.167409
2.876236
4.480831
6.375689
5.908274
4.895972
4.785436
6.104576
4.354895
4.950335
4.647345
4.306740
4.751554
3.826449
3.543810
4.113548
4.274866
4.494336
4.411050
5.219650
2.302030
3.033947
3.643306
2.979674
4.399537
4.406511
4.710684
3.960094
4.869487
8.794436
4.460088
7.501222
4.901297
7.821442
4.829597
7.225636
4.403066
7.142517
5.166911
7.912237
-2.251861
4.142865
-0.464479
3.665689
4.950956
3.048306
6.849378
7.999408
9.703593
9.329227
9.476317
10.298998
11.223329
10.590885
15.956975
11.083854
10.147552
10.528546
13.534737
9.962230
10.149997
9.501243
11.574023
11.391404
6.928943
8.279215
10.294422
10.550414
8.804819
11.255935
4.775345
9.912031
2.155772
9.216770
3.875627
6.432737
1.271362
5.097160
1.672605
5.293861
-0.145343
4.326562
-1.053356
3.681653
-2.202462
3.287151
-2.467057
4.022281
-0.833794
3.875687
-1.734557
11.302648
10.138545
3.246289
-1.963406
-2.129410
-1.109673
11.015450
7.372465
3.369312
-0.954157
13.544279
4.492199
-1.169953
-1.465210
3.542533
-0.882555
8.311919
-1.560042
2.778592
-2.388863
7.310829
1.867473
2.763144
-5.465857
6.388630
2.529863
3.116580
-7.217567
6.960506
2.709141
2.798223
-6.837094
3.133584
2.115430
2.219435
-2.636813
4.016934
1.283658
1.632215
1.097141
6.294248
0.259055
1.568282
4.470316
6.659906
-0.139814
1.942271
14.304861
6.718718
10.687206
5.875368
8.834074
8.581684
6.241247
9.276257
4.971089
11.684522
12.291520
11.955450
6.194890
10.216747
3.672538
9.082457
-1.360052
-1.814470
1.627029
9.440539
2.133336
0.774604
0.857545
1.808277
0.140042
6.517527
6.687166
13.579144
10.492894
5.493502
6.057964
8.631395
10.835876
4.394791
3.409207
2.144487
2.046310
4.445694
0.811232
3.460983
0.737152
2.837403
0.644617
4.061303
0.616069
4.423247
1.883651
4.090576
0.967209
6.931876
2.437911
3.445502
1.891302
9.372501
2.690814
3.041190
1.951554
10.133794
2.129822
2.924752
2.665929
9.038425
3.650368
2.968367
6.013622
9.551888
6.182592
2.278091
6.540735
10.853477
6.693160
2.138542
6.990835
9.728366
5.751101
2.696907
6.329032
9.606190
5.234878
3.082012
5.869424
7.669212
5.180521
3.462332
5.383315
7.477233
5.766097
3.628628
5.046758
8.726927
5.381948
3.446040
3.096362
10.182677
5.321746
4.234213
0.274420
10.200379
5.817036
5.376269
4.005200
4.750338
-2.116939
8.359364
5.002581
4.822918
-3.832724
6.309608
3.801574
3.269472
5.466045
5.307171
-3.094448
6.732931
3.511373
5.295525
1.104157
5.426194
4.027032
2.876326
1.929433
5.046990
4.251625
5.358840
4.119000
4.069147
4.838054
8.766907
5.131982
5.008036
4.691027
8.094402
7.982770
4.631878
4.508134
5.410297
6.481860
9.551798
10.693324
5.421708
8.971590
8.824127
8.659859
8.497478
8.200356
8.800350
8.712563
6.484786
7.909942
7.721549
7.267093
7.022481
6.766891
5.555470
5.740247
3.208095
4.456130
2.502264
3.867196
2.403707
3.713098
2.792883
3.247545
4.792265
5.976782
5.057725
2.126399
5.404928
2.249512
5.875260
3.063176
5.300889
3.880504
5.048124
3.866894
5.190250
3.656250
4.652959
2.483050
4.108267
2.626528
4.449114
4.478803
3.681191
4.955103
4.519464
2.754846
2.246189
5.286922
4.776492
4.571316
3.795949
4.908724
3.441888
2.704132
2.664954
5.091796
5.823967
4.304737
5.128766
4.242492
7.284831
4.272336
6.884633
4.848576
6.537743
5.323661
6.765068
-3.582222
0.265264
-3.011328
2.349546
5.037244
1.903616
6.380736
4.234761
7.403638
18.508588
8.491079
12.993921
7.716528
10.291437
10.814074
10.272476
10.709463
9.789962
9.637511
9.344245
15.496691
9.841250
15.719737
17.975755
16.516289
9.207123
14.058992
13.266005
9.430362
9.005499
6.222617
9.704721
4.114725
8.710383
5.010280
8.472975
5.938706
8.319231
3.414676
6.115809
7.044837
6.066632
3.175450
7.037533
6.389230
5.801542
1.965862
3.387102
1.883978
3.625326
0.369816
2.975020
-0.891953
3.089777
-1.472052
13.053588
14.956511
3.000149
-2.996464
13.267063
8.276806
3.250290
-2.383254
12.308309
3.634231
-2.867511
-2.786385
3.601731
-0.512288
10.604837
-1.821378
3.944820
-1.105221
8.569519
0.095932
3.034497
-2.126264
8.287336
0.424797
3.588689
-5.395616
6.503664
0.730241
3.183317
-6.952631
6.470593
0.896710
2.387031
-6.904656
1.349626
0.985513
2.710997
-3.420671
2.899099
2.058586
2.039343
-0.206350
6.020541
2.152275
1.661574
2.994903
6.864741
9.772832
7.160170
6.839094
8.181473
5.161013
8.677698
4.856809
9.091152
4.439071
13.108152
5.134687
19.849561
16.976600
11.916447
-3.811898
4.585865
6.117650
10.100975
-1.135143
7.948274
4.655794
6.525848
6.567210
17.221196
9.561920
5.792568
6.505264
10.891816
13.788927
4.256135
3.548779
7.860170
17.650707
0.476441
1.220803
7.546046
8.122729
-0.040284
-1.585393
1.038747
-3.068011
2.417750
-3.791916
2.745360
-3.539162
3.362191
-2.813728
8.288406
5.782445
3.164242
-0.477580
10.231721
4.839113
3.049850
0.885747
9.010066
3.212871
3.013251
1.883052
7.453371
2.898888
4.332463
4.720033
2.992141
2.700452
9.587597
4.616415
3.339276
4.751572
9.896409
3.758188
3.417100
5.084049
9.804423
3.685334
3.489205
5.255692
10.068634
4.582408
4.431260
4.755862
3.564210
5.138737
10.210971
5.090081
4.253016
4.435797
3.090617
4.660512
10.616303
4.631429
4.495795
4.630696
3.361426
4.550862
9.869570
5.045089
4.159229
4.442382
3.636857
4.316586
10.646174
3.120880
4.331194
2.460120
11.236991
5.283714
4.109806
0.229279
10.226444
3.019765
4.973852
-3.204936
9.189506
5.502110
6.494056
-3.682145
7.312766
5.588425
5.678965
-2.588452
5.029916
2.429307
1.926065
4.238650
5.794961
-0.529273
4.723758
1.384691
5.341015
2.102125
6.095830
4.250487
4.747196
3.506789
7.641112
4.294573
4.985001
4.063632
9.117359
10.200082
5.361381
4.602932
5.062234
7.188095
4.975781
9.174062
9.095081
10.294321
9.124996
9.251258
9.119720
11.367432
8.371181
8.496661
8.961788
6.978856
7.482879
5.623504
5.455335
4.239423
6.323247
4.068985
4.019575
3.509078
2.650559
2.242424
3.239076
1.880963
4.078579
4.493537
4.898871
1.667886
4.080176
4.122104
4.151618
4.939699
5.417364
2.056310
4.237534
4.557618
4.980548
2.783761
4.382301
5.217396
4.465956
2.260583
3.510055
1.624032
3.157793
1.146230
2.770254
2.349041
3.316867
4.049541
4.771975
5.322068
4.032921
4.064486
4.124141
4.257274
3.076727
3.501734
3.647109
3.574351
3.240940
5.630694
3.222545
5.353838
2.047143
4.722654
3.305987
4.543491
5.035093
3.960113
7.660063
4.339225
6.843199
4.150046
7.499148
-3.541194
6.129519
-3.965848
-2.419013
-2.219250
1.559586
3.932358
2.708854
5.075110
15.758975
6.479953
4.057808
5.586513
12.776710
7.142800
12.586066
7.684790
9.650646
8.111457
9.564854
10.832459
9.235565
7.904292
8.568996
14.467728
9.644947
10.709234
9.301738
10.849540
8.930621
9.259376
9.526061
8.039332
8.843320
7.093964
11.114651
8.221077
6.254542
5.734150
9.072151
6.222895
7.444946
8.243909
8.143770
9.008257
5.471483
4.105120
4.095821
3.779982
4.337148
4.152183
4.840019
3.324497
4.984880
1.745168
3.417794
-0.109289
12.317538
11.747640
2.448496
-3.559975
15.833315
-4.447541
2.267649
-2.682647
17.950082
-4.298887
2.812464
-0.754463
10.576114
-1.533106
3.056931
-1.196893
9.221932
0.250622
2.425643
-2.654441
8.147158
8.004221
6.026771
0.486154
3.648791
-4.661597
7.390374
-0.608796
3.020403
-5.160910
5.107662
-0.550648
2.938428
-4.829979
2.461093
0.372172
2.595064
-0.991216
2.805290
1.977816
2.439721
0.267218
6.103291
1.728150
8.969585
4.245952
8.775098
4.185205
9.339280
4.103951
10.204414
4.557288
10.980357
4.016782
13.231579
-5.107627
13.279303
-6.476164
14.810440
7.821115
5.448485
-1.167761
3.883731
0.784335
5.431494
7.802202
4.976521
12.854677
4.847473
7.148871
10.709492
9.103931
5.254021