# vtk DataFile Version 1.0
vtk file 6g2t_1:B:B_model1
ASCII
DATASET POLYDATA

POINTS 22114 double
-19.905000 -16.285000 -13.038000
-18.903000 -16.288000 -12.779000
-19.703000 -16.290000 -12.236000
-19.125000 -16.183000 -12.024000
-15.909000 -16.233000 -4.957000
-12.018000 -16.357000 -4.728000
-16.510000 -16.241000 -3.876000
-11.734000 -16.427000 -3.909000
-16.693000 -16.317000 -2.986000
-11.304000 -16.388000 -2.931000
-8.116000 -16.338000 -3.013000
-5.884000 -16.382000 -2.885000
-16.762000 -16.306000 -1.874000
-10.834000 -16.378000 -1.983000
-8.937000 -16.227000 -2.045000
-4.958000 -16.366000 -1.901000
-16.224000 -16.511000 -0.833000
-4.767000 -16.414000 -0.819000
-15.954000 -16.361000 0.014000
-4.741000 -16.358000 0.114000
-1.779000 -16.281000 0.080000
0.211000 -16.485000 0.016000
5.177000 -16.117000 0.065000
7.030000 -16.210000 0.275000
-15.912000 -16.256000 1.086000
-5.008000 -16.390000 1.012000
-2.936000 -16.269000 0.965000
1.929000 -16.318000 1.109000
3.001000 -16.440000 1.201000
7.791000 -16.269000 1.220000
-15.563000 -16.317000 2.089000
-4.254000 -16.224000 2.140000
-2.983000 -16.340000 1.795000
1.143000 -16.448000 2.066000
2.835000 -16.404000 1.914000
8.793000 -16.517000 2.138000
-15.300000 -16.523000 3.089000
-5.006000 -16.254000 3.070000
-1.017000 -16.448000 2.989000
0.116000 -16.238000 3.041000
3.110000 -16.468000 2.811000
8.866000 -16.275000 2.914000
-15.256000 -16.434000 4.013000
-5.975000 -16.132000 4.169000
3.915000 -16.551000 3.990000
8.649000 -16.344000 3.943000
-15.596000 -16.277000 5.013000
-9.672000 -16.204000 5.038000
-8.612000 -16.347000 4.994000
-6.713000 -16.257000 5.086000
4.071000 -16.344000 4.914000
8.594000 -16.224000 4.840000
-15.917000 -16.227000 5.943000
-11.254000 -16.241000 5.944000
4.207000 -16.404000 5.805000
8.074000 -16.078000 5.985000
-15.740000 -16.359000 6.863000
-11.931000 -16.205000 6.963000
5.145000 -16.431000 6.925000
5.970000 -16.256000 7.219000
-14.233000 -16.517000 7.890000
-12.284000 -16.076000 7.906000
5.232000 -16.296000 7.778000
5.768000 -16.233000 8.031000
7.213000 -16.234000 9.981000
8.086000 -16.267000 10.133000
-14.867000 -16.182000 10.949000
-13.925000 -16.308000 11.148000
7.333000 -16.161000 10.953000
7.902000 -16.241000 11.017000
-7.727000 -16.280000 11.868000
-7.221000 -16.260000 12.068000
-19.223000 -16.224000 15.952000
-18.096000 -16.265000 16.256000
-19.975000 -16.130000 17.056000
-17.812000 -16.279000 17.181000
-19.638000 -16.262000 17.823000
-17.976000 -16.148000 17.946000
21.245000 -16.253000 18.970000
22.899000 -16.199000 19.127000
21.284000 -16.171000 19.964000
22.836000 -16.231000 19.911000
-13.805000 7.799000 -38.968000
-11.103000 7.683000 -38.862000
-14.693000 7.859000 -38.005000
-10.075000 7.536000 -37.830000
-15.024000 7.638000 -37.049000
-9.810000 7.783000 -37.086000
-14.975000 7.774000 -35.986000
-9.946000 7.619000 -35.962000
-14.970000 7.779000 -34.986000
-9.817000 7.653000 -34.819000
-14.937000 7.758000 -33.986000
-9.672000 7.566000 -33.963000
-14.982000 7.762000 -32.986000
-8.951000 7.588000 -32.909000
-14.792000 7.760000 -32.037000
-8.711000 7.644000 -31.886000
-13.074000 7.612000 -30.956000
-9.228000 7.660000 -31.063000
-21.572000 7.777000 -29.789000
-18.049000 7.689000 -29.819000
-11.781000 7.664000 -30.044000
-10.088000 7.764000 -29.971000
-21.803000 7.583000 -28.886000
-17.052000 7.460000 -29.100000
-7.043000 7.636000 -29.140000
-3.993000 7.553000 -29.059000
-22.005000 7.743000 -27.914000
-16.976000 7.516000 -28.171000
-9.147000 7.536000 -28.033000
-2.909000 7.486000 -27.887000
-22.056000 7.620000 -26.819000
-17.108000 7.573000 -27.153000
-10.675000 7.838000 -26.989000
-2.129000 7.575000 -26.963000
-1.142000 7.647000 -27.019000
0.320000 7.614000 -26.908000
-21.685000 7.513000 -26.050000
-17.024000 7.609000 -26.169000
-11.848000 7.850000 -25.970000
0.951000 7.787000 -25.979000
-13.134000 7.895000 -24.936000
1.151000 7.789000 -25.015000
-13.840000 7.751000 -23.914000
-0.985000 7.740000 -23.942000
0.362000 7.845000 -23.839000
2.005000 7.640000 -23.963000
-16.753000 7.788000 -22.950000
-1.777000 7.683000 -22.895000
0.942000 7.638000 -23.019000
7.339000 7.663000 -23.035000
10.320000 7.715000 -22.900000
17.331000 7.857000 -22.818000
18.185000 7.764000 -22.890000
21.136000 7.552000 -23.130000
-18.250000 7.547000 -22.044000
-2.099000 7.786000 -21.927000
0.840000 7.530000 -21.986000
21.273000 7.826000 -22.057000
-18.703000 7.816000 -21.147000
-2.009000 7.683000 -20.986000
0.831000 7.741000 -20.986000
21.442000 7.830000 -21.064000
-18.610000 7.766000 -20.153000
-1.718000 7.632000 -20.210000
0.753000 7.897000 -20.089000
23.898000 7.583000 -19.790000
-18.465000 7.728000 -19.235000
24.325000 7.583000 -18.886000
-17.687000 7.627000 -18.270000
24.173000 7.683000 -17.986000
-17.126000 7.772000 -17.024000
23.856000 7.683000 -16.986000
-17.663000 7.729000 -15.842000
23.877000 7.683000 -15.986000
-18.150000 7.863000 -14.967000
24.004000 7.683000 -14.986000
-18.543000 7.535000 -13.875000
24.302000 7.683000 -13.986000
-18.263000 7.612000 -12.926000
-0.553000 7.783000 -13.041000
1.916000 7.708000 -12.896000
24.343000 7.683000 -12.986000
-17.753000 7.768000 -11.986000
-0.107000 7.678000 -12.086000
1.314000 7.759000 -11.899000
23.974000 7.728000 -12.041000
-17.827000 7.693000 -11.103000
22.001000 7.771000 -11.062000
-20.608000 7.632000 -9.804000
21.246000 7.638000 -9.961000
-20.830000 7.539000 -8.914000
20.301000 7.732000 -9.013000
-20.759000 7.622000 -7.819000
20.150000 7.730000 -7.997000
-20.901000 7.694000 -6.819000
20.664000 7.424000 -6.999000
-22.885000 7.686000 -5.738000
-22.204000 7.581000 -6.039000
-21.125000 7.745000 -5.937000
20.685000 7.639000 -5.914000
-23.160000 7.717000 -5.068000
20.998000 7.583000 -4.973000
-24.888000 7.655000 -3.751000
0.427000 7.746000 -3.831000
4.254000 7.756000 -4.035000
23.753000 7.589000 -3.822000
-25.049000 7.718000 -2.944000
0.449000 7.603000 -3.155000
4.660000 7.843000 -2.970000
24.309000 7.748000 -2.986000
-27.041000 7.812000 -1.785000
1.228000 7.685000 -2.246000
4.086000 7.891000 -2.034000
24.446000 7.548000 -2.052000
-27.362000 7.852000 -0.985000
23.495000 7.765000 -0.822000
-27.579000 7.612000 0.015000
-9.099000 7.768000 -0.056000
-6.134000 7.556000 -0.012000
23.045000 7.804000 -0.118000
-27.959000 7.683000 1.014000
-9.796000 7.662000 1.121000
-6.016000 7.601000 0.794000
23.175000 7.675000 0.976000
-28.172000 7.760000 2.024000
-9.919000 7.583000 2.114000
-6.536000 7.945000 1.950000
24.080000 7.510000 1.876000
-27.830000 7.556000 3.134000
-9.675000 7.642000 2.930000
-6.263000 7.545000 2.930000
24.280000 7.569000 2.906000
-27.195000 7.702000 4.158000
-8.751000 7.530000 3.882000
-7.131000 7.725000 3.876000
23.803000 7.680000 3.824000
-27.188000 7.910000 4.938000
18.009000 7.863000 4.970000
-30.017000 7.658000 6.000000
17.250000 7.683000 6.060000
-31.079000 7.834000 6.999000
17.175000 7.783000 6.914000
-31.808000 7.612000 8.005000
17.307000 7.731000 7.871000
-31.976000 7.683000 9.014000
18.144000 7.811000 9.057000
-31.915000 7.683000 10.014000
19.098000 7.799000 10.029000
-32.071000 7.850000 10.943000
19.328000 7.576000 11.014000
-32.762000 7.683000 12.110000
-12.657000 7.560000 12.256000
-9.813000 7.479000 12.142000
-5.994000 7.754000 11.995000
-3.613000 7.668000 11.965000
13.200000 7.798000 11.998000
14.182000 7.685000 12.251000
18.844000 7.797000 11.797000
-32.856000 7.683000 13.014000
-12.804000 7.535000 13.167000
-8.975000 7.643000 13.089000
-7.935000 7.804000 13.023000
-2.078000 7.564000 13.141000
13.246000 7.818000 12.967000
14.328000 7.679000 12.925000
16.737000 7.694000 12.874000
-32.807000 7.754000 14.014000
-12.135000 7.705000 14.088000
-1.687000 7.575000 14.154000
13.991000 7.696000 14.103000
-32.131000 7.449000 15.012000
-28.608000 7.752000 15.106000
-25.800000 7.564000 15.020000
-25.009000 7.740000 15.121000
-23.994000 7.549000 15.029000
-11.798000 7.834000 14.914000
-1.107000 7.712000 15.182000
13.975000 7.583000 15.114000
-21.791000 7.586000 15.937000
-11.733000 7.793000 15.847000
-0.831000 7.769000 15.914000
13.771000 7.735000 16.002000
-19.999000 7.524000 16.996000
-11.916000 7.838000 16.913000
-1.639000 7.699000 17.111000
13.787000 7.701000 16.914000
-19.689000 7.598000 17.835000
-12.887000 7.902000 18.039000
-3.304000 7.815000 17.948000
13.984000 7.522000 17.857000
-19.734000 7.740000 18.847000
-14.105000 7.679000 18.948000
-4.645000 7.525000 19.230000
15.138000 7.520000 18.917000
-19.645000 7.735000 19.769000
-14.759000 7.777000 20.069000
-4.687000 7.738000 20.178000
15.320000 7.697000 19.847000
-4.726000 7.683000 21.014000
15.136000 7.725000 20.847000
-4.542000 7.661000 21.743000
15.065000 7.732000 21.800000
-2.173000 7.598000 23.041000
13.188000 7.664000 22.978000
0.807000 7.516000 24.076000
12.241000 7.715000 23.917000
2.236000 7.473000 24.972000
8.921000 7.633000 24.858000
-19.334000 -16.284000 -13.344000
-19.505000 -16.079000 -11.828000
-19.526000 -16.206000 16.198000
-19.345000 -16.073000 18.207000
-18.417000 -16.042000 15.875000
-18.487000 -16.169000 18.198000
-16.287000 -16.407000 -4.251000
-16.495000 -16.250000 -1.192000
-15.281000 -16.468000 -5.348000
-15.455000 -16.264000 2.416000
-15.351000 -16.412000 4.808000
-15.407000 -16.182000 7.407000
-14.433000 -16.307000 -5.791000
-14.707000 -16.285000 7.790000
-14.479000 -16.159000 10.566000
-14.498000 -16.270000 11.520000
-13.317000 -16.302000 -5.714000
-13.431000 -16.255000 8.419000
-12.313000 -16.105000 -5.358000
-12.625000 -16.277000 8.168000
-11.447000 -16.227000 -3.389000
-11.566000 -16.436000 6.354000
-10.208000 -16.289000 -1.403000
-10.499000 -16.205000 5.326000
-9.374000 -16.341000 -1.449000
-9.387000 -16.434000 4.960000
-8.425000 -16.314000 -2.645000
-8.185000 -16.271000 5.100000
-7.352000 -16.190000 -3.343000
-7.338000 -16.317000 5.271000
-7.349000 -16.259000 11.612000
-7.549000 -16.281000 12.186000
-6.308000 -16.130000 -3.191000
-6.406000 -16.517000 4.644000
-5.426000 -16.339000 -2.588000
-5.430000 -16.484000 3.594000
-4.397000 -16.274000 1.803000
-4.561000 -16.328000 2.354000
-2.282000 -16.460000 0.564000
[...]
POINT_DATA 22114
SCALARS Potential double
LOOKUP_TABLE default
0.991180
3.311433
-0.005228
-0.398642
2.838890
-1.849585
4.430104
-0.284373
1.110023
-0.038483
-6.394010
-5.979940
-3.411954
-5.643755
-8.046334
-6.803602
-8.305984
-9.325356
-12.255633
-12.905444
-12.752621
-8.509584
3.761033
4.736650
-16.185065
-14.479556
-17.415320
-5.034192
-3.537778
4.362302
-16.073695
-13.863001
-20.231964
-9.343327
-5.414098
4.507169
-14.049979
-13.103971
-15.315740
-13.815394
-7.417900
4.465662
-11.845438
-12.078818
-5.946995
3.829523
-9.169640
-9.703624
-9.646228
-9.858260
-4.477180
4.461919
-7.661933
-7.076010
-3.519984
3.518540
-6.428090
-4.943153
-0.205288
1.374843
-5.505188
-5.859044
0.129600
0.996191
1.970457
2.478215
-4.776033
-5.115877
2.327097
2.685675
-5.540680
-6.142269
-3.692802
-2.333226
-6.339024
-4.292280
-6.636407
-4.971709
12.234554
9.105289
8.834817
8.969031
-1.978819
-2.588264
-1.108907
-2.327326
-0.724670
-1.388547
0.021610
0.250299
0.540908
3.043847
-1.187987
2.540639
-2.674445
-1.027705
-2.262078
-2.353749
-0.076570
-1.309399
-1.563583
3.321943
0.263402
-0.986377
-4.102660
0.227948
0.246151
0.849065
-7.096697
-0.682165
-2.215717
3.413082
-9.068143
-1.777674
-1.509413
3.531191
2.665545
2.566765
-9.250902
-3.464979
-1.361920
2.063841
-3.895484
0.605329
-5.386044
5.086327
2.933817
-0.795878
-5.566556
4.271739
3.437286
-12.808156
-8.610322
-4.216180
-4.327078
-4.799143
-3.429612
3.802644
6.088792
-5.779323
-3.317297
5.659153
8.988560
-7.426514
-3.255351
7.845161
9.065986
-10.199067
-4.142160
-10.559752
-2.463664
-9.559180
1.692548
-6.507829
3.337622
-6.274511
-0.554402
-7.350571
-4.392408
-10.617884
-6.765832
7.306343
11.008433
-9.781680
-8.142446
10.134878
11.942642
-6.007751
-10.437445
-3.746041
-18.465036
-0.056564
-15.308514
2.925900
-11.646711
6.782402
-10.870839
3.355837
-11.505371
-10.077911
-10.769066
-0.841445
-8.694199
-1.206111
-8.601696
-8.911120
-15.432326
-1.024373
-7.333702
-7.745400
-15.722347
-1.326607
-12.171148
-11.830613
-16.301477
-2.891158
-11.191809
-5.095898
-9.393014
21.541749
24.784347
-5.188047
-10.266939
24.809097
25.750516
-5.815351
-10.761279
23.974261
27.087110
-9.915538
-12.117286
24.789093
25.945425
-9.808380
-11.382248
27.179313
28.538132
-8.850122
-12.464309
-2.263336
-16.553623
-2.521237
-11.884753
-0.381915
-12.635889
-2.143944
-13.200375
-4.700060
-14.357425
-5.964212
-16.100207
-5.640562
-16.296335
-6.616543
-5.472346
15.327160
17.671754
1.448160
0.384353
-4.272742
-12.649367
-8.389438
-6.449678
-0.771230
8.963911
0.760468
-0.734531
-2.202055
-9.562035
-9.172986
6.592272
-1.610685
-9.473023
-9.785488
-7.068626
-4.132980
-2.398302
-9.944795
3.303629
-1.241966
0.359758
-9.768039
2.452853
-0.371577
2.053929
-9.533131
2.989702
0.078529
2.652407
-9.073871
3.504597
-0.028143
2.477256
-6.476944
1.468534
-0.267560
1.876252
-6.086182
1.020000
-0.426819
0.613092
-0.672948
0.252424
-0.688183
0.989140
0.142637
1.265735
-2.583256
-0.895018
-6.381128
5.458637
-0.047090
-4.105465
-6.035978
-0.085184
-5.641481
5.569873
-6.441218
-1.121097
-14.234722
-10.398611
-5.841819
-2.297597
-4.962429
-5.170252
-4.245997
-2.176704
-6.430157
-2.041693
-6.658080
1.259428
-5.891137
-8.305915
-8.568988
-9.396368
-10.144669
-6.547081
-8.432571
-5.474275
-8.593076
-6.428127
-5.700448
-5.522885
-9.759626
-6.015088
-12.981590
-19.396510
-11.796333
-15.348864
-17.953270
-9.999678
-15.610694
-8.313954
-14.225203
-7.180488
-12.155169
-5.275027
-7.415574
-0.045223
-6.743818
1.847254
-1.438873
3.713165
0.551549
4.768639
2.080355
4.574197
3.046317
2.469809
3.757017
4.673714
3.736343
12.979376
8.982018
11.305268
8.245469
-17.897415
-8.901156
-13.452735
-9.779423
-14.379684
-13.195490
-17.152279
-13.241131
-16.523407
-10.278759
-9.236055
-11.872765
-12.238430
-8.066790
-11.212292
-8.119334
-8.613046
-6.343000
-8.455503
-3.488371
-8.574070
-2.071963
-11.308617
-0.643680
-2.234418
-9.152963
-10.399478
1.257308
-1.207986
-7.948173
-18.816101
2.036650
3.197510
-5.170821
-17.965731
1.766571
8.103544
-4.392837
-2.383832
-4.764651
-2.147865
-6.060658
-13.611215
1.222368
1.043304
-4.288598
-5.239972
-1.854215
4.800043
-0.855527
-5.976382
-3.598905
-6.819129
-5.842129
-1.572333
-1.947156
-5.879584
-6.704199
-2.285840
-1.119339
-4.217009
-7.584150
-2.161056
0.574522
-1.593905
-5.220605
-8.453781
-9.581615
-2.247329
-0.136733
-0.542899
-4.980904
-2.322734
-0.966776
-1.299252
-4.792013
0.843546
-0.840689
-1.612747
23.491760
24.002848
-4.469709
-1.963417
23.840045
27.747734
-5.089732
-0.248446
24.424482
27.649692
1.966775
0.465311
24.080290
27.301157
32.090770
31.180171
8.441606
0.399986
14.909157
0.552922
12.967023
2.096298
0.134600
1.412267
15.793554
3.420391
0.492662
3.907081
11.345867
3.775882
0.998101
3.614923
5.057063
9.049377
4.754413
3.101380
1.415697
2.222901
4.082463
9.339721
9.819433
8.443142
2.297403
2.812225
2.268828
9.980057
10.468519
11.283439
-10.792536
-7.628792
2.011547
-0.036243
11.477724
11.528445
-11.408372
-12.133421
-0.389261
-1.641047
-12.749336
-17.186810
-1.941334
-4.711821
-12.812490
-15.858550
-2.824089
-8.273977
-16.212531
-16.002105
-3.046965
-10.784602
-3.811333
-12.831814
-6.723970
-12.484920
-8.550253
-5.884822
-7.711767
-6.111091
-4.101499
-9.608558
-5.024577
-9.314660
-3.992420
-7.148969
-1.095921
-4.246331
1.095479
-0.360728
0.496943
-3.706264
-2.095840
-0.272415
-0.008954
-3.947421
-1.890677
-5.070304
-1.988968
-4.576781
-3.174371
-3.468909
-2.277677
-4.025704
-1.917365
-5.895665
-3.628506
-4.773249
-1.259287
-4.831477
2.216508
5.668886
-3.723283
-6.989184
-1.746415
-1.579031
-4.740545
-8.608826
-4.802590
-1.449173
-6.033263
-10.098808
-3.624636
-1.077083
-4.036302
-8.129544
-8.557568
-2.724804
-4.812561
-0.808217
-8.892297
1.534480
-11.057688
-7.097969
-11.730258
-10.064074
-8.686439
-7.937738
-4.897412
-6.795276
-4.094040
-6.787402
-1.620516
-5.049128
-0.016824
-4.602674
0.551934
-5.304567
0.579408
-5.239724
0.440007
-4.468946
0.897707
-2.032279
1.111695
-0.190545
0.664604
0.479863
-0.256533
-0.746400
2.967367
-0.818934
6.677769
-0.027591
7.126510
2.826614
10.121564
9.151618
10.059126
11.260763
7.229810
4.163188
2.304636
1.696453
-3.173909
0.387921
-3.435898
-1.049937
-2.263398
-3.676440
-1.114417
-4.919556
-0.630836
-3.354374
-1.321240
-0.007888
-2.018554
7.784117
-2.501731
4.640258
-1.160457
1.600963
-1.633599
-2.507403
-2.299033
-3.972803
-3.468158
-1.659374
-4.253387
0.968694
-3.448498
1.608953
-6.015089
1.430194
-8.789491
0.175957
-9.401292
-1.856465
-7.846753
-3.988791
-3.780162
-2.014350
-9.634963
-5.877791
-7.153677
-4.172674
-4.358103
-8.542873
-10.494960
-14.482823
-14.024236
-4.354862
-2.593405
-11.642101
-2.819620
-13.097901
-9.719226
-11.118129
-6.579425
-9.910149
-11.992298
-16.630381
-18.880999
-10.195676
-19.273792
-7.825091
-16.603915
-3.716288
-12.515037
0.143809
-10.690163
0.308517
-7.644955
-0.605980
-5.753153
-2.370657
-0.394058
-4.282893
1.605967
-6.167838
2.188417
-8.576958
1.477193
-13.333232
0.527951
-12.819289
-0.277502
-13.799021
-1.364944
-13.625033
-0.436027
-11.360049
-0.097064
-8.822919
0.316226
-7.044567
1.005619
-7.833025
6.531778
6.882613
2.710758
-8.349865
7.253343
7.354220
19.128442
28.172615
2.590919
-7.856953
5.911674
5.759167
22.696958
26.777070
2.580933
-8.762310
21.756479
28.378179
2.128121
-9.897449
-10.793064
-13.784248
24.544336
27.761854
1.497918
-13.008826
28.576462
35.285623
0.903117
-11.877740
31.354316
31.753946
1.028770
-11.410486
37.631871
38.033578
2.589691
-7.870774
35.811251
39.892813
32.486420
34.116746
2.564370
-7.378826
29.199541
34.364959
-0.755698
-7.963640
42.356034
36.191467
-2.375220
-6.425241
32.944098
30.402715
-4.074735
-11.022191
-9.789173
-7.157548
-11.114983
-3.816134
-12.564710
-0.881704
-12.496852
0.184234
-12.274016
1.890689
-9.150305
3.178618
4.324980
4.878492
13.763292
10.915910
-2.337665
-3.513244
-6.872226
6.406531
11.932775
11.435621
15.635884
10.550072
-1.328142
7.801178
11.396810
10.446351
15.586494
11.097138
-3.010518
11.620152
15.213569
14.299662
-2.572476
13.326180
0.329742
7.181235
1.601451
5.578019
-6.310034
6.139864
-6.336860
1.674286
-5.453748
-9.463877
-7.311715
-7.170336
-0.928591
-9.198224
0.802241
-9.368209
1.336627
2.590621
-7.910679
-4.499667
2.513712
-1.621354
-0.373881
-2.581933
-8.328400
-3.536998
3.594528
-2.906824
-0.555571
-2.859973
-1.125512
-7.115760
-4.989980
-2.614754
4.637794
4.897251
2.649599
-9.656492
-8.176018
-2.649542
3.349759
-3.130070
0.509943
-4.631841
-4.252081
-7.143306
-12.704969
-8.946232
-13.927457
-8.367079
-13.862706
-1.137237
-8.547308
4.815144
-5.916270
-0.830139
-2.739446
-5.804729
-2.370264
-5.408683
-2.855809
-6.795800
-4.083684
-8.612678
-6.623084
-8.115356
-6.741887
-5.327157
-8.095978
-10.720113
-7.131021
-4.786491
-6.464094
-8.930930
-6.225257
-10.175260
-7.075791
-12.475045
-8.667950
-12.655457
-8.771905
-10.422978
-10.323697
-11.129996
-7.061689
-9.304882
-10.473122
-7.412731
-11.337220
-8.957773
-11.190970
-11.597800
-9.997397
-12.267032
-3.610330
-9.504302
-1.065183
-5.592819
-0.368439
-2.311459
0.208807
-0.369049
2.447809
0.016890
4.725931
0.932317
11.701635
10.574418
6.029789
2.663314
14.601513
13.470579
17.593889
2.679611
3.589146
2.033984
2.922884
-2.003722
2.319801
-2.272518
-0.410781
1.326665
-3.723798
-1.635349
-1.680761
0.352336
-1.672992
0.606595
-0.459449
-1.507829
-1.454822
-5.854661
-4.375804
-4.093938
-7.352949
-6.464626
-8.688682
-8.252926
1.087084
6.467871
7.049136
-9.879128
6.228489
-13.114740
5.978642
-2.353263
-3.114062
-13.006685
6.013819
0.190947
-4.717334
-11.571587
-12.434936
-17.569685
-9.648324
-11.284870
4.958397
2.944665
-3.628610
-9.382805
-12.274923
-8.976973
-10.143222
-11.678711
-12.742961
-9.328571
4.101113
7.181094
6.734732
-8.804561
-4.241446
-6.373125
3.705592
-5.285938
-3.741199
-4.542338
4.004445
-5.920373
-4.279688
-1.732567
3.083780
-7.686505
-6.231975
-0.506014
2.754934
-5.895372
-5.188416
-11.119380
-9.883279
1.525783
3.647211
-3.619315
-3.839455
-4.480654
-7.340219
2.006071
3.901949
-6.255413
-2.302418
-3.728474
-6.715781
-7.072193
-4.455875
3.618515
5.131091
-6.352113
-3.430571
-3.593291
-5.843631
-5.572190
-3.126218
-5.145859
-4.626638
-3.451402
-5.037666
-5.041688
-3.333064
-3.410744
-1.969164
9.098512
6.004862
-3.844782
1.291629
-3.793473
-3.577543
8.000641
12.558680
15.401020
5.703888
-5.515283
0.194961
-6.235492
-4.581225
4.904572
17.097514
12.740823
5.742635
-5.705897
-1.165592
-6.978190
-5.326180
13.961436
9.713333
6.957739
9.059831
7.917783
7.629158
7.622278
7.995788
7.245299
12.059040
-2.214995
-1.968921
-2.021611
-1.852929
-1.327420
-1.589958
-0.925699
-1.224692
-0.467540
-0.880755
-1.476914
-0.662026
-4.149343
-1.627816
-5.169397
-4.783035
-4.822866
-4.135390
-0.275913
-0.472738
3.877137
2.139536
2.274387
-0.961240
0.469957
-0.850506
-1.728917
0.016495
-5.268157
-3.165419
-4.070899
2.317871
-7.677812
-5.978374
-3.354782
7.907895
-2.626480
5.819968
-4.597180
1.564524
-5.235248
0.469647
-2.931572
-10.504126
-5.585499
-5.456337
-7.651842
-7.135994
-6.492670
6.545104
5.972663
-8.759717
-4.998632
-6.975843
-4.836820
7.222738
6.518587
-4.439165
-4.616732
7.935487
8.228095
-8.336055
-4.379430
9.852503
9.123368
-7.970139
-4.963831
-9.927725
-3.935274
-7.946845
-0.208297
2.886678
-0.108836
4.306369
3.048610
-2.941042
-2.855556
-6.070615
4.102612
1.968142
0.121621
5.011706
3.370866
-1.456288
-3.175010
-6.660874
-0.014709
7.688060
9.269982
-7.600940
-3.034981
0.789332
8.837291
-10.796515
-5.026931
3.410578
8.148839
-3.074177
-3.593814
-11.018095
-7.999877
5.588123
7.354061
-5.305897
-6.623151
1.244717
0.086876
-1.935965
-12.516436
2.498266
-10.486009
4.101086
-9.447255
2.947562
-9.263204
1.531759
-8.024938
-1.037954
-6.498915
-16.417222
-13.688826
-1.057160
-8.772529
-9.944058
-4.989267
-13.349510
-18.006851
-0.915873
-1.052605
-9.325635
-17.576507
-1.934723
-2.764796
-10.822466
-15.731805
-2.748319
-11.016902
-4.388666
-3.019271
-4.278762
-10.227966
20.907595
21.365200
-2.531964
-11.591153
24.494829
23.419753
-3.282617
-14.069745
24.012951
21.894880
-5.404510
-12.764503
28.012332
24.076472
-4.826264
-13.040534
-2.241778
-14.086348
-1.786137
-18.133943
-1.851973
-14.544935
-0.438591
-12.380804
-1.265999
-12.713430
-2.746768
-11.827537
-5.107036
-12.489002
-4.589128
-12.159542
10.877102
12.109178
3.260389
-0.638331
-2.637625
-10.159014
-6.128482
8.320746
3.903786
-9.264776
-6.740482
6.489986
0.828271
-9.002751
-6.819833
2.236624
-0.521789
1.358719
-7.397610
-0.199894
-3.982010
-1.102555
-0.167018
2.577031
-8.035219
-0.037150
-0.931712
3.212815
-7.541631
2.488132
-2.585632
0.194213
-2.742546
1.874252
-2.748540
0.105429
-1.549024
1.455605
-1.225938
1.625620
4.120925
0.660160
-0.199352
1.931248
5.675546
0.334227
3.409997
5.025301
0.245514
4.127339
0.035832
1.373303
-3.869603
-4.166027
-4.230252
-1.179724
1.857784
6.801827
6.924821
-2.570703
2.945841
-0.780027
5.927429
-3.427487
1.556416
-5.401460
-5.743592
2.374497
2.221462
-5.033691
-1.242654
0.460456
-4.583030
4.475976
-2.346162
6.304712
-3.958219
-6.866744
-5.946423
2.825864
-2.797532
1.818603
-10.760332
-12.886685
-6.725661
-5.095172
-4.805304
-0.897918
-4.964378
-4.346864
-4.906547
-2.690117
-2.411814
-2.918129
-2.146081
-1.646931
-5.652769
-4.764815
-2.868752
-2.100211
-6.132619
-5.164144
-8.837058
-4.529330
-3.720505
-6.646090
-11.324022
-4.702670
-3.444994
-5.760358
-10.619833
-4.780528
-4.020350
-5.213425
-8.730330
-6.012232
-4.680590
-4.168537
-9.603055
-7.221612
-5.483863
-4.757469
-14.736011
-6.710963
-15.445264
-10.537926
-13.583500
-11.440734
-10.962325
-11.380247
-12.278565
-11.002105
-11.725541
-5.491453
-3.510303
-7.373649
-11.993613
-11.374191
-10.478219
-6.773043
-6.569708
-4.690057
-10.756931
-8.083535
-6.297638
-2.822617
-11.324398
-6.056428
-3.242970
0.068051
-10.331262
-4.626063
-3.569642
2.171182
-10.745993
2.846050
-2.972314
4.623703
0.281914
5.252732
1.181836
9.074108
8.304007
7.785918
2.887169
10.969627
16.535943
5.753409
4.708065
2.811215
6.818179
3.605564
6.432951
16.343288
16.516438
11.480780
11.888827
7.286454
8.835903
5.924545
7.504675
5.611368
6.722101
8.050250
6.798204
7.262641
6.560445
7.993787
8.206709
9.171642
10.987199
8.713426
9.296422
-14.131568
-8.428206
-13.322026
-7.885475
-12.456218
-8.190903
-15.809914
-8.635327
-13.560633
-13.573826
-16.344642
-6.285321
-10.930540
-13.824359
-15.218723
-2.001631
-9.832820
-3.412488
-7.200483
-5.135263
-5.707628
-4.073683
-4.020023
-1.600752
-0.454773
0.200545
0.171765
1.390201
-11.537016
-1.289049
-3.938604
0.482048
1.125760
3.646130
3.739935
-2.102276
-11.662319
2.274045
2.507728
6.638301
-0.203334
-6.944766
-8.030057
5.559496
1.270594
-3.971526
-6.125778
5.334438
-0.041229
-2.395550
-5.446556
-4.671846
-14.387029
-9.093367
-5.216952
2.343793
-6.249508
-4.625067
5.329570
-5.393069
-10.097098
-6.755917
-5.130950
0.660933
-6.350471
-1.552624
-6.592277
-2.702852
-1.663058
-4.414569
-7.683496
-3.915542
-1.906763
-3.049035
-7.713320
-6.651779
-2.510085
4.117063
-3.079051
-8.330208
-1.939655
0.562043
-2.662455
-5.169178
-1.634798
-3.600814
-1.215923
21.987221
22.230571
-3.144841
-4.105191
3.483604
0.737073
23.184517
27.178109
-0.783256
-2.877246
1.863808
-0.229305
22.322107
25.807004
5.389074
-0.789597
12.966610
-0.333831
11.293726
-0.718159
10.835674
1.173932
0.448870
-1.484098
10.613234
3.171325
0.724180
-1.321828
6.132662
7.179853
7.167248
2.875706
1.569621
1.087347
6.111278
9.762915
2.615213
7.915730
3.505804
2.123265
2.778195
2.930875
6.090347
9.451003
5.950858
9.626923
1.067416
-0.150280
4.580266
6.204455
5.700284
8.705558
8.136137
13.030473
2.741116
1.135365
9.371180
12.067292
-13.904954
-10.980796
-0.768039
0.808970
9.817304
9.457319
-13.710985
-14.752928
-2.755469
-3.247306
-11.004893
-15.324604
-3.965780
-7.001639
3.660305
5.484042
-19.965421
-17.718839
-3.720123
-9.549255
2.460817
4.235392
-2.376514
-2.839424
-3.872265
-9.521180
-1.343535
-1.795437
-3.235722
-7.549541
-2.015827
-3.031126
-1.719377
-3.357623
-1.051796
-5.442394
-0.040944
-5.709491
-2.626697
-0.996844
2.617514
3.845748
-2.426822
-5.136313
-1.851743
-1.804312
1.999182
2.557431
-1.498177
-5.575277
1.359676
0.059209
-0.314091
-4.911769
0.240788
-6.260434
-1.530679
-6.272618
-2.218839
-3.729025
3.531499
3.555262
-1.999371
-3.770554
-3.161928
-5.165423
0.465553
2.335030
-0.714951
-5.261996
-4.395217
-6.386744
-3.447856
-3.075860
-0.526363
1.914242
0.090220
-6.012306
-3.299525
-1.177415
-2.800586
-7.625126
-7.287958
-1.343237
-4.246539
-8.799277
-9.431193
-1.581636
-3.520121
-4.198656
-1.839517
-9.981079
-9.572121
-1.271274
-3.456727
-1.559557
-3.155409
-2.838274
-3.689316
-1.132132
-10.464287
0.330941
-11.402480
-9.672065
-9.910195
-14.181212
-12.927166
-7.756193
-6.915531
-12.587135
-2.683680
-9.163898
-1.643551
-8.149296
-0.450988
-6.217038
0.647103
-8.467870
1.161596
-5.278005
1.070561
-6.406726
0.951195
-6.089923
0.757421
-1.835441
0.422931
-0.780670
-1.035065
0.669016
-1.559372
1.191327
-0.169292
0.943108
9.040679
3.086408
8.037871
7.733841
8.202475
7.474620
9.710080
6.827512
7.611274
2.816837
4.652716
0.922006
-1.991065
-0.144179
-3.248026
-1.893551
-2.232550
-4.784333
0.444778
-2.849685
0.949267
-0.617471
-0.843253
0.398526
-1.813561
3.385644
-1.663737
5.083145
-1.260451
2.244674
-1.616188
-2.312811
-2.575515
-2.778205
-2.901749
-1.460631
-3.771885
1.833947
-4.713886
4.424052
-5.012522
4.444866
-6.307361
0.966158
-6.484570
-0.606128
-4.626139
-2.324345
-7.062093
-5.242637
-5.491484
-1.324267
-9.351738
-7.476919
-8.184141
-1.939354
-1.918187
-10.281502
-10.805900
-13.232072
-12.242106
-14.905462
-12.966250
-0.716408
-6.636522
-8.104789
-10.958581
-8.104148
-8.278484
-8.655804
-10.842186
-8.842188
-11.371325
-8.238382
-14.356779
-7.518261
-15.235180
-4.790835
-15.411805
4.292679
6.758203
-2.466935
-10.516918
5.250566
-6.550258
1.825259
-4.563518
-0.361392
-2.487325
-2.823180
0.341977
-4.081075
0.756935
-7.730568
0.901152
-11.506091
0.402571
-8.786181
-0.463613
-12.802924
-1.426186
-14.023535
-0.646186
-13.651210
-0.181083
-11.365634
0.743697
-8.749179
1.644756
-11.362039
6.792948
6.142664
3.301631
-7.583567
-9.327739
-10.576418
6.641243
6.456904
2.998928
-7.868292
5.828869
6.068413
2.820378
-11.356151
2.055519
-9.926140
1.622252
-10.783774
1.255440
-12.953629
1.594746
-10.329232
4.344846
-6.491149
2.363050
-5.639968
0.454330
-6.181948
26.629093
28.249618
-1.511833
-5.848306
-4.384467
-6.046818
-8.050162
-6.228721
-11.396909
-2.257838
-12.069953
-0.527131
-12.267911
1.077401
-5.009003
2.156485
-0.418785
3.194599
4.253782
4.257150
14.052679
13.298176
-2.502814
2.615892
14.577627
12.535711
-2.471835
-2.672802
-7.029903
5.989672
12.380030
12.212367
13.233811
13.705655
-5.404971
5.953396
11.947761
11.739615
12.783118
16.168693
-0.489692
5.557576
3.070545
4.276864
-3.843655
2.540373
-7.956631
1.022072
-12.007843
-6.320694
-4.873301
-9.139355
-12.570412
-8.588581
-2.235477
-6.405138
-8.615411
-8.653005
-4.914782
-7.848564
-6.663790
-3.816313
-1.241841
-0.799442
-3.471747
-0.679303
-3.138567
-1.232410
4.604845
-2.324500
3.342887
-0.154702
0.497601
-9.904672
-11.153679
-3.548253
-3.015429
-3.786980
-3.225940
-7.137427
-5.541481
-4.820287
-6.180715
-7.870461
-7.485405
-9.639658
-7.010019
-12.025368
-7.742257
-14.592244
-6.828855
-11.924449
-12.084566
-11.409713
-8.430260
-9.805678
-11.219853
-8.809441
-5.749030
-6.221024
-12.189964
-10.490759
-10.522282
-12.201778
-9.015545
-13.731582
0.818810
-11.923502
3.257010
-7.313613
0.512539
-3.581463
0.618614
-0.596435
1.543354
1.292280
2.950164
2.823486
12.242123
5.002084
15.278086
-1.741885
1.318771
-1.944600
-2.661887
-1.861929
-3.037550
-0.325952
-4.603221
-1.606403
-0.699150
1.684288
-3.026763
-3.136416
-3.137372
-6.472770
-7.670766
-1.830798
-5.719852
-0.911476
-8.812061
-5.412164
-6.493624
-6.371693
-3.761256
-6.801950
-3.779863
-7.498923
-4.579613
-7.033370
-8.522885
-7.947623
6.992935
-5.423576
8.400996
-0.743293
-2.290798
-5.162311
6.677288
-0.252883
6.635509
2.472910
-9.260977
-10.131391
4.760187
4.322082
-10.682407
-9.245486
-8.725615
-8.867252
2.876668
4.027075
1.471429
-5.371773
-3.848677
-6.240813
-7.504685
-5.755957
2.017698
3.566882
3.835474
-3.930669
-2.632077
-7.799201
-7.644565
-4.452516
3.490557
-5.078138
-3.296516
-7.460866
-6.585906
-3.212736
3.327207
-4.689664