# vtk DataFile Version 1.0
vtk file 7pmg_2:B:C_model1
ASCII
DATASET POLYDATA

POINTS 22252 double
-4.851000 -16.197000 -38.195000
-0.854000 -16.388000 -38.266000
-5.049000 -16.165000 -37.385000
1.084000 -16.406000 -37.206000
-4.174000 -16.381000 -36.235000
1.786000 -16.269000 -36.272000
-3.737000 -16.298000 -35.444000
2.242000 -16.258000 -35.379000
-3.664000 -16.039000 -34.334000
4.678000 -16.179000 -34.089000
-3.401000 -16.354000 -33.512000
4.870000 -16.105000 -33.273000
-4.269000 -16.167000 -32.442000
4.824000 -15.988000 -32.252000
-4.718000 -16.258000 -31.281000
4.362000 -16.345000 -31.181000
-4.321000 -16.364000 -30.129000
4.331000 -16.325000 -30.173000
-4.076000 -16.197000 -29.273000
3.861000 -16.125000 -29.460000
-4.149000 -16.197000 -28.273000
1.076000 -16.058000 -28.313000
-3.976000 -16.199000 -27.202000
1.055000 -16.114000 -27.440000
-3.466000 -15.999000 -26.109000
0.887000 -16.149000 -26.440000
-3.707000 -16.197000 -25.180000
0.890000 -16.147000 -25.344000
-4.667000 -16.000000 -24.243000
1.372000 -16.153000 -24.462000
-6.752000 -16.260000 -23.203000
1.936000 -16.183000 -23.375000
-7.842000 -16.250000 -22.254000
2.837000 -16.283000 -22.312000
-8.928000 -16.224000 -21.147000
3.277000 -16.310000 -21.434000
-8.901000 -16.250000 -20.069000
4.146000 -16.310000 -20.424000
-8.323000 -16.389000 -19.116000
4.443000 -16.272000 -19.312000
-8.021000 -16.171000 -18.201000
-0.015000 -15.962000 -18.228000
1.765000 -16.212000 -18.213000
4.171000 -16.177000 -18.220000
-7.809000 -16.197000 -17.273000
-2.903000 -16.246000 -17.190000
-8.026000 -16.278000 -16.415000
-3.577000 -16.289000 -16.076000
-8.224000 -16.317000 -15.273000
-3.294000 -16.101000 -15.190000
4.225000 -16.007000 -15.233000
4.924000 -16.115000 -15.270000
-8.019000 -16.202000 -14.201000
-2.872000 -16.182000 -14.306000
2.714000 -16.271000 -14.241000
5.890000 -16.262000 -14.269000
-7.860000 -16.197000 -13.273000
-2.160000 -16.312000 -13.055000
2.057000 -16.184000 -13.334000
8.843000 -16.354000 -13.251000
12.807000 -16.175000 -13.179000
14.036000 -16.325000 -13.236000
-8.229000 -16.138000 -12.511000
-1.768000 -16.371000 -12.253000
0.325000 -16.197000 -12.260000
9.152000 -16.216000 -12.515000
12.302000 -16.234000 -12.203000
14.160000 -16.203000 -12.448000
-11.838000 -16.142000 -11.073000
11.083000 -16.113000 -11.186000
-12.007000 -16.197000 -10.273000
11.884000 -16.123000 -10.150000
-11.937000 -16.320000 -9.328000
12.651000 -16.260000 -9.283000
-11.882000 -16.197000 -8.273000
12.940000 -16.277000 -8.288000
-12.215000 -16.126000 -7.333000
15.107000 -16.226000 -7.156000
-13.247000 -16.158000 -6.373000
15.927000 -16.238000 -6.237000
-13.565000 -15.982000 -5.402000
16.330000 -16.197000 -5.273000
-13.004000 -16.194000 -4.363000
16.364000 -16.180000 -4.201000
-12.881000 -16.243000 -3.344000
16.157000 -16.063000 -3.164000
-13.260000 -16.177000 -2.380000
15.656000 -16.118000 -2.379000
-13.645000 -16.056000 -1.362000
15.376000 -16.269000 -1.293000
-14.299000 -16.056000 -0.467000
15.377000 -16.197000 -0.273000
-14.922000 -16.241000 0.792000
15.318000 -16.197000 0.727000
-14.708000 -16.126000 1.745000
15.370000 -16.126000 1.834000
-14.271000 -16.234000 2.832000
15.165000 -16.297000 2.827000
-13.794000 -16.369000 3.680000
15.090000 -16.197000 3.727000
-14.068000 -16.030000 4.602000
15.270000 -16.258000 4.633000
-16.035000 -16.020000 5.841000
15.905000 -16.269000 5.718000
-16.607000 -16.300000 6.933000
14.151000 -16.244000 6.883000
15.153000 -16.424000 6.744000
15.900000 -16.097000 6.537000
-16.553000 -16.369000 7.658000
13.161000 -16.239000 7.883000
-16.140000 -16.260000 8.746000
12.107000 -16.224000 8.968000
-15.933000 -16.320000 9.794000
12.115000 -16.285000 9.744000
-15.200000 -16.197000 10.699000
13.803000 -16.155000 10.856000
-14.675000 -16.146000 11.617000
14.110000 -16.268000 11.781000
-14.187000 -16.300000 12.817000
14.855000 -16.225000 12.881000
-13.373000 -16.333000 13.935000
15.069000 -16.140000 13.727000
-12.989000 -16.227000 14.935000
14.862000 -15.986000 14.628000
-12.261000 -16.221000 15.940000
14.158000 -16.230000 15.627000
-11.818000 -16.281000 16.894000
-1.789000 -16.174000 16.892000
0.097000 -16.396000 16.815000
14.173000 -16.263000 16.577000
-11.895000 -16.266000 17.894000
-2.096000 -16.175000 17.605000
0.200000 -16.075000 17.727000
14.119000 -16.151000 17.560000
-11.900000 -16.331000 18.811000
-4.896000 -15.970000 18.760000
0.231000 -16.361000 18.638000
13.892000 -16.114000 18.509000
-11.112000 -16.355000 19.676000
-6.732000 -16.103000 19.741000
0.247000 -16.168000 19.520000
12.945000 -16.172000 19.632000
1.045000 -16.300000 20.537000
11.995000 -16.041000 20.726000
4.821000 -16.196000 21.938000
11.203000 -16.256000 21.893000
5.066000 -16.332000 22.681000
9.021000 -16.105000 22.776000
2.668000 7.806000 -30.350000
6.174000 7.685000 -30.245000
1.419000 8.003000 -29.273000
7.204000 7.617000 -29.264000
1.319000 8.005000 -28.395000
7.721000 7.787000 -28.223000
2.032000 7.781000 -27.264000
7.942000 7.803000 -27.273000
2.922000 7.725000 -26.140000
7.848000 7.803000 -26.273000
-5.874000 7.696000 -25.188000
-4.680000 7.846000 -25.164000
2.945000 7.903000 -25.256000
7.924000 7.803000 -25.273000
-10.772000 7.742000 -24.200000
-8.163000 7.594000 -24.260000
-6.731000 7.818000 -24.233000
-3.967000 7.698000 -24.437000
2.287000 7.903000 -24.256000
8.053000 7.803000 -24.273000
-11.841000 7.709000 -23.252000
-3.759000 7.831000 -23.507000
1.769000 7.892000 -23.494000
7.810000 7.984000 -23.249000
-12.713000 7.973000 -22.282000
-1.771000 7.650000 -22.471000
-0.350000 7.879000 -22.350000
6.788000 7.927000 -22.232000
-12.767000 7.886000 -21.478000
5.439000 7.655000 -21.027000
-12.052000 7.609000 -20.379000
5.356000 7.614000 -20.267000
-10.916000 7.636000 -19.282000
7.177000 7.753000 -19.171000
-9.894000 7.597000 -18.270000
7.910000 7.858000 -18.256000
-9.323000 7.895000 -17.231000
8.156000 7.834000 -17.298000
-9.710000 7.836000 -16.042000
10.725000 7.803000 -16.075000
-9.902000 7.703000 -15.173000
11.256000 7.724000 -15.436000
-9.731000 7.828000 -14.159000
12.016000 7.731000 -14.310000
-9.457000 7.787000 -13.244000
12.100000 7.903000 -13.373000
-9.805000 7.895000 -12.441000
11.701000 7.873000 -12.503000
-10.991000 7.803000 -11.198000
7.924000 7.820000 -11.032000
-11.162000 7.803000 -10.273000
8.045000 7.703000 -10.173000
-10.889000 7.903000 -9.373000
8.219000 7.803000 -9.273000
-10.818000 7.747000 -8.435000
7.992000 7.970000 -8.364000
-11.157000 7.788000 -7.394000
2.974000 8.018000 -7.276000
4.137000 7.589000 -7.226000
6.026000 7.970000 -7.278000
-11.661000 7.959000 -6.392000
1.815000 8.067000 -6.237000
-12.114000 7.909000 -5.422000
0.103000 7.816000 -5.113000
-12.070000 7.865000 -4.284000
-0.052000 7.680000 -4.279000
-10.795000 7.817000 -3.278000
0.813000 7.694000 -3.274000
6.240000 7.894000 -3.246000
9.214000 7.726000 -3.278000
-10.004000 7.627000 -2.338000
10.009000 7.704000 -2.419000
-10.228000 7.822000 -1.433000
10.158000 7.911000 -1.440000
-11.975000 7.807000 -0.302000
10.306000 7.994000 -0.409000
-13.642000 7.853000 0.809000
10.992000 7.793000 0.593000
15.139000 7.884000 0.796000
16.700000 7.662000 0.918000
-14.140000 7.829000 1.627000
17.180000 7.803000 1.815000
-13.955000 7.792000 2.689000
17.880000 7.642000 2.733000
-12.845000 7.700000 3.540000
18.314000 7.684000 3.628000
-12.024000 7.710000 4.791000
18.041000 7.817000 4.570000
-11.422000 7.693000 5.965000
17.075000 7.843000 5.649000
-11.096000 7.687000 6.809000
15.980000 7.847000 6.677000
-9.990000 7.823000 7.847000
-7.967000 7.795000 7.758000
-5.750000 7.731000 7.740000
14.911000 7.785000 7.572000
-5.331000 7.607000 8.723000
12.984000 7.774000 8.840000
-9.213000 8.028000 9.712000
-8.055000 7.674000 9.620000
-5.892000 7.937000 9.735000
12.885000 7.807000 9.799000
-9.891000 7.676000 10.639000
13.246000 7.796000 10.903000
-10.881000 7.864000 11.753000
13.547000 7.900000 11.680000
-11.884000 7.803000 12.822000
13.104000 7.796000 12.613000
-12.021000 7.803000 13.727000
12.963000 7.903000 13.627000
-12.032000 7.903000 14.627000
13.305000 7.770000 14.493000
-12.145000 7.699000 15.629000
14.179000 7.627000 15.664000
-13.287000 7.723000 16.744000
14.287000 7.803000 16.727000
-14.560000 7.988000 17.808000
13.852000 7.924000 17.558000
-14.773000 7.894000 18.560000
10.918000 7.998000 18.743000
-14.677000 7.873000 19.501000
10.137000 7.803000 19.791000
-11.884000 7.700000 20.721000
9.284000 8.035000 20.745000
-10.318000 7.685000 21.942000
7.418000 7.803000 21.859000
-9.904000 7.703000 22.827000
7.231000 7.803000 22.727000
-9.626000 7.743000 23.605000
7.331000 7.799000 23.793000
-7.764000 7.726000 24.731000
7.590000 7.855000 24.920000
-7.222000 7.605000 25.684000
7.721000 7.886000 25.727000
-7.229000 7.949000 26.795000
7.642000 8.004000 26.601000
-7.505000 7.641000 27.973000
4.030000 8.036000 27.756000
4.858000 7.769000 27.830000
6.933000 7.786000 27.596000
-7.492000 7.605000 28.662000
2.387000 7.790000 28.923000
-6.693000 7.694000 29.571000
1.941000 7.852000 29.805000
-2.319000 7.630000 30.793000
1.861000 7.826000 30.827000
-2.052000 7.682000 31.532000
1.758000 8.032000 31.612000
-2.206000 7.853000 32.656000
0.866000 7.936000 32.779000
-2.048000 7.737000 33.610000
0.625000 8.046000 33.590000
6.841000 31.855000 -17.214000
9.030000 31.638000 -17.337000
5.816000 31.980000 -16.156000
8.806000 31.678000 -16.341000
3.958000 31.936000 -15.279000
8.187000 31.780000 -15.355000
-0.222000 31.895000 -14.332000
0.917000 31.727000 -14.227000
2.656000 31.967000 -14.341000
8.285000 31.825000 -14.512000
-1.365000 31.917000 -13.392000
9.839000 31.680000 -13.270000
-3.021000 31.823000 -12.195000
10.723000 31.572000 -12.372000
-3.366000 31.958000 -11.315000
8.961000 31.910000 -11.333000
-3.276000 31.639000 -10.270000
7.236000 31.972000 -10.276000
-2.708000 31.774000 -9.381000
7.047000 31.994000 -9.374000
-2.191000 31.731000 -8.294000
7.388000 31.773000 -8.373000
-2.212000 31.803000 -7.273000
7.286000 31.769000 -7.344000
-2.215000 31.903000 -6.373000
6.699000 31.895000 -6.503000
-2.299000 31.875000 -5.436000
6.156000 31.895000 -5.435000
[...]
POINT_DATA 22252
SCALARS Potential double
LOOKUP_TABLE default
-6.190890
2.824266
-7.023941
-3.202126
-5.771893
-4.638624
-4.594468
-4.636597
-5.535035
-5.265242
-4.548703
-4.363513
-5.295311
-3.448500
-4.304116
-2.970409
-3.292213
-3.011760
-0.855587
-1.913995
0.139619
4.820105
0.943886
4.094593
2.082179
2.903258
0.048453
2.588136
-1.970618
2.795799
-5.180798
3.071246
-9.680969
3.481470
-10.848350
4.536215
-8.592996
3.961180
-6.798429
-0.793877
-3.346818
-0.344112
3.217879
-2.451433
1.794660
5.802120
7.871039
3.346397
5.652801
2.819906
-3.974306
-7.435924
1.861100
1.622013
0.706343
-7.214586
-0.635493
-0.113127
0.877955
-12.294827
-3.040640
4.258629
-3.149384
-0.970137
-1.226932
-11.724460
-9.352693
-1.640866
-6.470924
-13.894852
-6.349258
-9.688698
-5.185117
-9.968931
-5.232346
-6.678155
-5.863058
1.864439
-6.744498
-2.859066
-6.198902
-3.335515
-5.841367
-3.436766
-5.381611
-3.490086
-3.154443
-0.715764
-1.484780
-4.286834
-1.644891
-8.649733
-2.347995
-10.731089
-3.170897
-13.954809
-4.666595
-15.123338
-4.930426
-16.101898
-5.593764
-16.314174
-10.139212
-14.339250
-11.386195
-7.548791
-9.543236
-7.303189
-11.120301
-5.331232
-11.534995
-6.137833
-12.214466
-6.972024
-9.385335
-6.026878
-7.073737
-7.075726
-5.324174
-10.325480
-2.702576
-11.882508
0.116662
-10.496010
2.729996
-5.409311
2.658847
-5.097205
-4.013430
-2.951743
1.781681
-7.944116
-4.554279
0.661329
0.442539
-7.658710
-6.260434
2.006390
-1.277555
-8.864928
-7.076089
3.437333
-6.670663
3.006944
-4.438614
8.223290
-4.532374
-3.181880
-6.299267
-8.153269
-8.670683
-7.169116
-9.012901
-7.446865
-5.372657
-8.769863
-2.872920
-8.000475
-13.911849
-13.240448
-2.115070
-9.714258
-3.726521
-7.813154
-11.493705
-12.040797
-2.243369
-11.044844
-2.219804
-7.865137
-1.746112
-10.045762
-1.677663
-3.408285
-2.240574
-5.852615
-1.328473
-2.880527
-1.098139
-3.212529
-1.143706
-9.206924
-2.664662
-8.449766
-3.909653
-5.812512
-1.702622
1.339412
-0.999720
2.980437
-1.208958
11.992952
-1.126980
9.337817
-2.760179
7.417809
-7.615558
-0.533393
-10.663200
0.321346
-11.264152
1.809855
-14.747568
3.591282
-18.246892
17.190346
13.380804
8.951366
-18.044613
20.840005
-19.802072
18.055861
-20.314702
17.447185
-18.944377
14.228534
12.372670
6.126641
-15.816185
3.571161
-14.053142
4.640143
-13.970171
7.083099
-8.651088
7.146024
3.180688
1.319349
-7.146322
1.253800
-5.238557
0.942411
-2.634144
0.813370
-1.925403
1.467682
-2.775081
2.466253
-3.944942
3.988189
-2.842430
-0.403979
-0.719571
6.056889
-2.424503
6.652594
-1.931951
-0.551329
-4.771795
7.179947
-2.667817
7.138971
-4.251394
10.505981
-4.702718
8.422141
-3.881308
9.795658
-2.309934
12.504322
-0.655471
21.337539
2.122043
12.168151
7.715929
8.471776
8.034678
2.983872
4.191346
1.333242
2.659178
1.871593
-2.021886
-3.370087
-3.968915
-3.550292
-5.502885
-4.226409
-3.773594
-5.920729
-3.582632
-8.781826
-3.358085
-12.294616
-3.039462
-9.736269
-12.214680
-13.849392
-4.184961
-13.835567
-4.417429
-11.639268
-7.701574
-11.879932
-9.954925
-11.413958
-13.652442
-12.248017
-15.740304
-15.015793
-3.420313
-3.354319
-0.845477
4.331495
-4.111239
8.727571
-7.670955
-7.635507
-5.511058
7.815439
-3.829322
1.616016
-4.349984
-0.232852
-4.482699
-0.951290
-5.201232
-1.199128
-6.172393
-2.169523
-7.380902
-3.246324
-7.811328
-4.026809
-8.714761
-5.169221
-9.798130
-8.086208
-16.822979
-7.648304
-15.155499
-5.150876
-13.409845
-4.275596
-10.329637
-4.006792
-8.822765
-3.412914
-9.137778
-4.086732
-13.734936
-4.878697
-4.515921
-4.589556
-11.505983
-12.554107
-9.855609
-9.849557
-1.626027
-4.347318
-7.384534
-6.731738
-7.528261
-7.010817
-0.627721
-3.228114
-5.940351
1.521629
-6.050451
-0.885008
-5.071371
-1.931470
-4.228622
-2.936976
-10.611154
-6.213409
-3.474905
-4.518237
-7.654760
-6.009260
-3.371583
-7.043013
-1.987908
-6.787596
-5.195741
-6.105668
-5.579122
-2.905095
-1.156197
-7.829599
-3.174222
-4.719976
-4.768212
2.323602
1.078367
4.586518
3.578353
-9.664801
0.005029
1.582202
0.684112
-9.092716
2.626943
-2.321465
-1.587273
-4.070862
1.122024
-2.089205
-2.941651
-4.089968
-1.275739
1.609149
-0.466023
-6.807923
-3.977665
3.850850
3.519015
2.998723
0.379741
-6.337893
-4.941139
-0.673246
3.583489
5.235947
0.882642
-5.349991
-6.102723
-2.386226
6.267849
1.232166
-1.476235
-4.145498
-5.617253
-3.289334
-7.282135
-3.337557
-7.227443
-2.791819
-8.586947
-1.616308
-10.138938
-2.170388
-8.925272
-2.904131
-12.340635
-2.758729
-15.534823
-0.930679
-9.766841
6.763362
-6.268101
-9.042387
-7.591660
-6.045224
-5.862496
2.256724
5.287212
-6.044711
-0.463560
-6.373911
-5.894223
2.049054
4.943397
-7.648490
-8.168054
-8.641481
-1.286119
-0.820351
-15.912247
-10.201155
6.585776
4.097495
-10.241790
-3.947317
2.992109
7.417270
-1.689891
-1.383749
-12.520775
-2.074248
1.061754
6.874371
-3.193491
-1.291185
-16.736363
-21.443647
-14.770544
-1.806627
-4.602554
0.778274
-3.801083
-2.168892
-5.055104
-17.692672
-13.368496
-3.021291
-3.384823
-1.079893
-5.176430
-3.970664
-2.487442
-1.281147
-1.572886
-1.610714
-2.180780
-5.340409
-6.429636
-0.519021
-0.597877
-5.569576
-9.836380
-0.333372
-1.278248
-2.962064
-3.232790
-3.518257
-12.284216
-0.311994
-2.496113
-4.611353
-13.425195
-1.523780
-4.617381
-6.866964
-14.402988
-8.463643
-6.660597
-8.879770
-5.337247
-8.294396
-2.442607
-16.009810
-2.454129
-15.688934
-2.608971
20.606711
16.808785
-15.127512
-8.974707
-7.407930
-1.902635
24.003314
16.544094
-12.785409
-7.233065
-3.806167
-1.984485
19.267057
17.005618
-10.312596
-7.095111
14.343012
12.623136
-10.525113
-7.273736
12.835977
10.475425
-10.455614
-8.038428
-3.586793
-5.595945
10.560356
10.330022
-13.944985
-9.618981
-4.763452
-8.141099
7.387725
10.904767
-14.334922
-7.326409
-7.274796
-9.728810
6.002150
8.898515
-2.989219
-4.961806
-12.249735
-4.194343
0.082631
7.104015
1.207923
-1.608363
4.487771
4.690253
3.573700
0.667192
8.470940
7.070471
1.995159
4.642665
8.040653
7.296427
6.643326
7.165542
10.105190
5.405752
6.517604
8.595206
8.103567
13.646767
7.048303
3.850980
6.216414
2.254903
4.474453
1.615937
3.272854
1.208940
1.727964
-14.479764
-12.333963
-17.324734
-8.948098
-14.330822
-8.962768
-3.886152
-6.767713
-10.995405
-8.916297
-4.125443
-10.400349
-6.549762
-12.563385
-7.845130
-12.855510
-6.527632
-7.896128
-5.223882
-0.514504
-5.437830
-2.766512
-3.092205
-5.613679
-4.780894
-3.242644
-2.016050
-7.584353
-1.549210
-6.274247
-5.851658
-0.841967
-5.792482
8.292796
6.058060
-0.551640
2.388976
-0.964955
0.336667
-0.782541
3.855262
4.026127
0.111107
-2.539704
-3.817073
-4.608462
-0.260083
2.642007
1.332614
4.580532
0.330857
-1.413670
-5.238229
-6.711538
-1.465597
5.008198
7.582786
-0.253780
-2.135452
-8.324215
-9.029570
-5.461964
-2.538006
5.874954
9.400923
0.954316
1.762881
-11.594058
-5.750472
-12.050018
-4.789108
-9.775860
-4.326164
-6.749746
-3.221346
-5.253262
-1.208856
-4.980140
0.737997
-3.667531
0.593640
-2.041876
0.778218
-0.077616
1.662948
0.652378
1.996109
-1.000484
2.925144
-2.973443
5.696975
-6.334618
-5.156001
1.591102
-1.788191
-12.671397
-2.896971
-0.392282
0.760026
-0.788903
-4.911607
-13.657189
-1.473014
-1.977935
-7.103616
-5.215915
-5.015460
-5.539631
-9.614239
-3.847419
-7.810582
-7.773322
-8.596904
-5.480376
0.437790
-7.197223
5.356042
-7.097585
-10.798182
-9.129279
-13.621451
-8.109774
-13.628685
-6.633005
-3.887044
-2.949618
-11.902234
-7.524675
-4.696927
-0.942611
-1.358951
-2.039773
-6.210220
-10.522459
-4.530852
-1.953660
-3.659208
-12.112037
-5.537636
-1.948752
-4.229821
-1.885904
-2.536884
-12.311517
-8.484258
-4.983319
-3.660010
-1.178013
-3.568837
-12.168585
-8.089663
-3.222795
-3.517104
0.146862
-1.686557
-11.435118
-20.539050
-7.162971
-19.639601
-2.744458
-14.771938
-1.614350
-13.495046
-3.046675
-11.644491
-6.543173
-10.163306
-5.477288
1.945511
-5.241807
-9.545292
-5.848367
11.266602
-5.084168
-7.215111
-5.570700
2.467331
7.777851
11.453148
-4.921834
-2.954127
-3.715062
1.795224
8.721427
8.090795
-4.814127
-3.280189
10.729088
10.216645
9.758753
12.561260
-3.955238
-7.005098
16.113821
22.661353
11.623300
12.739380
-2.878717
-11.173839
13.327470
29.580258
13.028253
12.151845
-3.432387
-4.037279
-13.990207
-14.117660
11.597402
19.684467
-11.250852
-12.899677
10.336481
17.591744
-7.151026
-12.835216
20.494978
17.657892
-4.063957
-15.914308
-2.832499
-17.199899
-2.736291
-16.220739
-2.823861
-13.201048
-3.269071
-12.303537
10.952526
10.260990
-4.032447
-11.763710
8.087778
4.146192
-0.953425
-7.155187
-6.638188
-12.354357
9.430078
-13.424512
9.858201
-13.898601
6.509854
-7.873007
-4.197268
-3.277866
5.805371
-7.742722
4.849107
-13.629090
-11.991947
-10.396462
-15.237608
-17.504993
-13.294002
-12.325727
4.236650
-17.188234
-15.716480
-15.990533
3.249615
-16.925259
-12.371487
-15.534407
-11.243209
-2.402504
2.198509
-12.995617
-11.484331
-0.640972
0.496468
-7.942254
-10.478643
-10.421904
-8.799423
-5.162366
-3.279009
-7.286828
1.352681
-10.118980
3.062176
-14.150426
2.655714
-16.929171
3.148354
-16.373278
3.558415
-5.391956
-8.678377
-13.466855
0.979723
-5.017731
-8.491260
-12.958786
-1.959012
-6.215384
-11.366079
-10.127818
-1.610974
-7.060982
-11.049663
-13.244978
-1.615876
-5.908974
-12.037874
-13.692198
-1.883381
-0.405254
1.361186
0.243491
0.438463
-4.366028
3.426637
-1.062169
-0.099023
-9.043937
-9.994294
-5.818714
4.489530
0.336169
-0.283568
-8.572300
-13.201901
-5.250941
6.804902
1.055632
0.010370
-8.142536
-13.003037
-10.682878
-14.499420
-4.879643
7.774564
-10.217515
-13.447089
-0.467021
6.995425
-6.737223
0.658790
-6.451741
-4.022554
-6.098337
-4.232415
-7.904923
-4.746105
-7.185137
-4.340634
-5.211041
-3.275267
-2.935591
-3.540846
-1.958534
-2.390832
-1.036077
-1.059793
0.671317
0.253461
2.475380
7.303158
2.973215
7.973036
3.292488
9.011171
4.981561
6.855262
0.320639
4.236578
-2.205384
3.344459
-4.169953
3.736239
-8.677502
3.577265
-10.245335
3.650347
-6.806316
-0.209735
-3.161540
-6.587927
0.545864
-0.930298
-1.975250
-8.763308
3.299641
-1.410967
-5.685705
-13.180540
8.334842
4.015649
-7.784123
-13.279685
2.526442
2.609992
1.792219
0.380294
-4.667733
-11.056099
-0.148904
0.114082
-0.716977
-11.404167
-1.359756
-12.214339
-6.054438
-11.026953
-5.186231
-14.922686
-5.208066
-12.707746
-2.557783
-13.380990
-1.856986
-8.899937
-3.133178
-3.440268
-4.323326
-4.338190
-4.308761
-3.291576
-4.128451
-4.275058
-4.245091
-6.243117
-3.686606
-4.320191
-2.698590
-5.751827
-2.406212
-9.350840
-2.793283
-11.548054
-2.983372
-15.666400
-4.167279
-16.186345
-5.093403
-16.769208
-4.124837
-18.644600
-7.133156
-14.693634
-8.858368
-10.191017
-7.940114
-8.521334
-6.537226
-4.777212
-6.815703
-4.120182
-5.225308
-8.024322
-5.079710
-7.855323
-5.414926
-8.979587
-3.318811
-11.045294
-0.307066
-9.825616
1.266639
-4.328136
0.425324
-0.361782
-0.759154
5.457838
-1.336680
-10.624694
-5.258009
6.076004
-6.819207
-10.742061
-5.841057
6.139287
-5.780023
-4.758468
-1.410172
1.677930
-2.200390
0.065249
-2.660635
-3.843723
-13.566425
-10.216936
-10.939364
-7.943849
-10.662666
-8.200916
-9.839130
-9.592902
-7.385613
-9.562180
-4.523646
-11.978733
-11.148238
-12.945648
-3.362905
-12.438575
-3.769458
-8.888391
-2.095562
-11.525987
-2.128923
-12.340875
-1.818724
-12.271398
-1.765962
-10.496610
-2.067886
-8.762359
-5.524628
-6.612000
-5.548178
-3.237730
-3.314750
3.096014
-1.595064
4.429181
-1.876088
6.235473
-2.572589
6.755885
-3.865162
8.654380
-7.476295
5.147691
-10.087961
1.621474
-12.030518
1.419301
-15.797920
2.026827
-18.908119
13.289729
11.187395
8.230050
-17.782990
15.817680
-21.584960
17.171610
-18.828118
16.993969
-17.381326
13.484503
9.025024
5.579803
-17.014766
4.660980
-14.926802
5.974644
-7.610852
7.814804
-7.062642
7.959492
-6.384688
12.118059
12.447110
10.305713
6.586333
2.235474
-5.882536
11.104212
13.561716
2.024268
-14.092716
-13.400662
-3.965455
10.808081
12.892722
2.496230
-14.625465
-12.151529
-1.683245
9.648650
11.330617
3.079822
-15.463453
-13.583734
-1.372152
3.576270
-2.462320
3.595776
-2.367759
-1.738853
-1.861072
6.561323
-1.937618
-1.961565
-3.885776
7.638795
-2.371818
8.356914
-1.611347
8.333860
-3.007495
7.991784
-4.134484
8.941357
-2.827304
10.814011
-0.941512
12.089724
0.517352
14.905136
2.535956
11.888901
5.052721
9.863552
4.779771
2.268579
4.110220
-1.016824
3.995926
-0.783614
-0.320425
-4.319268
-2.023904
-3.237539
-3.074234
-3.607952
-2.621268
-6.370823
-2.567353
-9.566913
-2.248939
-11.853032
-1.786192
-11.510634
-1.101374
-12.732365
-1.745524
-13.634333
-6.052999
-10.788647
-8.735568
-9.801263
-11.685449
-9.423171
-14.370669
-13.171942
-1.313823
3.055713
-8.625880
9.438946
-5.834103
2.261643
-5.011416
-1.436948
-7.071613
-3.083862
-5.716797
-1.871406
-6.431413
-1.753420
-6.522511
-3.135741
-7.765113
-4.211971
-8.023058
-6.212397
-9.040569
-7.830214
-18.146642
-5.405143
-16.330968
-6.024025
-13.134632
-8.484352
-7.247188
-5.509298
-9.524943
-9.144485
-9.293673
-5.515166
-6.821261
-4.528967
-9.001057
-4.696389
-9.901665
-10.580285
-12.880212
-6.053732
-13.874693
-9.088508
-6.375084
-5.861630
-2.485568
-4.256453
-5.283495
-4.117089
-4.080602
-1.053786
-3.534325
1.925180
-5.551409
1.301627
7.709274
0.611777
-4.801221
-2.131518
7.428763
0.084338
-4.864192
-3.148739
-8.114957
2.072218
5.015142
0.067855
-3.755511
-4.441571
-8.119611
-6.373283
-9.314236
-8.414035
-7.160266
-3.797561
-6.531860
-9.334909
-7.347385
-3.177896
-2.361871
-0.221920
-2.628636
-10.359509
-6.483740
-2.681222
-2.826376
0.545794
-1.673055
-9.931159
-4.694216
4.863659
2.590725
-11.045008
-1.362013
3.992472
2.049103
-8.780990
0.699894
0.798507
1.023279
-7.436709
0.658977
-2.317248
0.544821
-6.642702
-0.567362
7.534401
3.223301
0.117789
-0.136129
-5.372017
-2.761326
6.126110
3.831008
0.687958
-0.201526
-5.696409
-4.362005
3.980447
3.728998
-1.165864
-1.220469
-5.357780
-5.807622
1.558842
1.150487
-7.884747
-5.164027
-3.603006
-4.748192
0.596667
-3.753975
-2.091578
-11.164634
-12.854850
-11.395554
-1.335203
-13.560132
-2.808006
-13.430789
-3.291837
-12.067605
-4.055956
-13.743269
-5.296689
-13.479523
-5.818032
-12.894456
-4.259257
-13.568003
5.793846
-5.315805
6.747083
0.009428
-4.818031
-4.686918
-7.654507
-2.511030
-3.403176
-11.614302
-14.963825
-17.908138
-7.242295
-7.669912
-9.126151
-3.477518
-6.007713
-9.419323
-7.932295
-13.520699
-16.494680
-12.810098
-14.215012
-12.908040
-13.442309
-9.504324
-4.728684
4.259969
4.678852
-11.489394
-3.256748
1.673662
5.201900
-2.643678
-1.878495
-20.089145
-19.630281
-13.321174
-2.052911
-0.073838
2.292979
-2.850809
-1.785814
-18.825087
-16.631884
-16.045377
-1.869448
-4.319232
0.282037
-4.649814
-2.674370
-4.734749
-1.937759
-3.662926
-0.493640
-6.609077
-4.525622
-2.192541
-2.065728
-2.315538
-1.983578
-8.307754
-3.210105
-9.434539
-1.653054
-2.983542
-1.945834
-11.247433
-1.578614
-4.968443
-0.699005
-12.334468
-3.617793
-7.903246
-4.970834
-7.393300
-5.693680
-6.218023
-13.211096
-4.282669
11.022033
10.092533
-15.322288
-3.000467
12.969342
11.115087
-15.512618
-2.368573
12.158788
10.204899
-13.618349
-9.480297
-10.203035
-2.141676
-9.995429
-9.071305
-6.236512
-3.848098
15.128517
16.018423
-12.885968
-8.126167
13.806732
12.448837
-11.202586
-8.976223
15.004387
9.705020
-11.583174
-11.168931
10.877864
9.917981
-14.358415
-11.742812
7.011391
10.638668
-13.900718
-9.567159
4.129189
8.009289
-3.793299
-5.040509
-12.308419
-4.993971
1.669364
6.445564
-1.917263
-1.263631
3.388218
4.736463
-0.598239
0.859700
7.900192
7.645725
-0.440814
3.702435
8.086211
10.289786
7.871101
9.752455
7.642157
7.529899
13.041041
8.508991
4.723240
12.314963
11.134084
5.597730
4.145817
4.025072
4.171286
2.717418
3.035370
-16.494696
-10.091863
-5.355740
-6.447761
-14.586445
-9.207437
-5.203375
-6.424466
-10.924468
-9.846653
-6.239281
-11.578459
-9.176053
-8.033518
-9.448227
-12.767696
-9.372121
-13.786054
-7.227745
-10.582640
-5.181409
-4.946519
-5.620897
-7.042484
-4.533277
-5.018730
-5.355667
-3.932165
-2.413276
-7.194285
-0.100373
-8.205834
4.309042
-2.362521
-2.921287
-4.980755
13.702053
-2.193762
8.586718
-2.821656
-3.126395
-3.345056
-3.500995
-3.807081
0.807139
4.695040
2.347122
4.305751
-1.956722
-2.216306
-6.485200
-4.646972
1.313997
4.207284
1.918920
-3.252393
-4.455210
-7.348835
-9.109595
-7.927684
-3.930718
-2.273027
-1.385755
-10.453476
-8.553492
-12.103982
-7.201160
-9.998729
-6.227224
-8.144488
-4.458766
-5.399980
-0.408517
-4.146031
-0.426141
-3.123283
-1.127318
-2.725260
1.181506
-3.026010
2.005679
-1.454520
2.509055
-1.341634
2.999944
-5.926246
6.914925
1.440222
-1.673898
-11.585937
3.217729
-0.160923
-3.414168
0.631558
-3.686918
-12.181780
-6.962066
-1.020375
-5.344777
-10.797277
-4.529445
-3.913727
-2.822943
-3.528376
-7.865078
-5.401166
-9.268702
-12.608393
-5.337452
-6.044296
-9.656239
-3.206802
-6.789992
-4.296856
0.333576
-6.180714
-4.681857
-5.698056
-13.916918
-13.687953
-12.231578
-10.787139
-14.361791
-7.748142
-13.633223
-6.470828
-4.105181
-2.096083
-12.733052
-6.252123
-4.684578
-2.278922
-6.677505
-11.713492
-4.475079
-1.871531
-3.927906
-17.990155
-4.432310
-1.231759
-3.261539
-13.203279
-4.714621
-4.700938
-4.434736
-0.701247
-4.403902
-11.745042
-4.106491
-2.721228
-3.028379
0.588857
-1.316177
-11.325916
-12.773894
-2.848576
-1.983296
-8.131682
-16.551119
-3.238230
-16.414160
-1.078382
-14.239723
-0.439225
-12.672318
-5.159216
-10.114592
-5.668710
-8.496816
-4.809891
-9.377081
-4.754984
-5.730293
-5.095760
-1.565615
1.339680
-4.197018
-0.760654
-5.529688
10.311040
12.721078
-1.482663
-9.115052
11.051194
12.678093
-2.331701
-11.124769
12.583205
15.826871
-3.014488
-1.590405
-1.199514
-10.666105
-1.750584
-11.707855
-1.235374
-12.673732
-2.510940
-3.249343
-1.647413
-13.680723
-2.056950
-3.052057
-2.144588
-12.963775
-2.023495
-2.067458
-2.734063
-11.243286
-3.223304
-13.338368
-4.195311
-12.666153
8.382697
7.205155
-9.178758
-13.145417
7.482564
2.386204
-11.365198
-12.397194
5.801192
-12.218882
3.896208
-12.252902
3.327876
-11.043206
-3.821121
-4.276724
3.601809
-11.951823
-5.626975
-7.695747
-11.682153
-17.573485
-14.050431
-15.415599
-2.001528
-0.662500
3.703901
-10.427857
-6.529328
-16.881451
-13.975580
-15.448841
-8.926521
-0.927363
3.236702
-14.065675
-10.979014
-15.965950
-12.684357
-0.591604
2.402586
-12.851446
-10.107207
-8.731531
-9.836538
-10.402506
-10.314266
-5.884687
-3.116466
-7.911897
0.745654
-8.936694
1.539087
-15.231802
1.345263
-17.850451
1.527641
-18.102679
1.726812
-14.704535
-0.127132
-13.213524
-4.512275
-8.010780
-9.298266
-12.716781
-5.888035
-8.320501
-10.449020
-13.932871
-5.554489
-6.389019
-10.100308
-15.423818
-11.925152
-11.148188
-7.157100
-12.382204
-12.927360
-13.585633
-10.762990
-1.183354
4.631790
-11.422761
-8.707906
-1.962414
6.732698
-11.973764
-13.841866
-1.472153
11.817343
-13.501230
-15.256956
2.503271
12.288190
9.152518
7.457351
-4.059565
-3.738292
-4.510343
-4.536031
-5.202797
-4.707855
-6.646871
-3.731079
-4.792130
-3.513241
-3.857919
-2.514854
-1.496818
-0.792502
0.328372
10.842345
7.915678
-0.184831
3.669395
10.227514
7.574972
1.487860
5.642727
8.758485
6.880837
8.131755
9.322402
7.891455
-0.390973
3.365138
9.758348
3.726973
-2.740901
2.869703
-5.052533
5.067023
-7.563138
3.099779
-8.122091
0.679442
-4.703734
-6.420439
0.351298
-6.173082
2.583477
0.125843
-2.784213
-8.668229
2.974210
0.840913
-5.229533
-13.393281
2.235341
0.395155
-6.734799
-16.691363
0.323758
-0.173076
-4.442100
-15.742534
-0.503666
-17.598778
-3.341966
-14.921842
-6.731528
-14.287868
-4.719634
-15.148773
-6.464903
-14.063791
-4.890433
-13.735222
-2.031672
-11.483734
2.305030
-8.942200
-4.060991
-2.796812
-1.205351
-3.193885
-2.710832
-3.631651
-2.666526
-4.806143
-2.639569
-6.370455
-3.603745
-7.335514
-2.603450
-8.159308
-2.239687
-9.724518
-2.494040
-16.787376
-2.841966
-18.597580
-3.548570
-16.354893
-4.216360
-15.902738
-4.049216
-14.790728
-4.165639
-15.619481
-3.241063
-13.736995
-3.380672
-8.668900
-3.271860
-7.740681
-2.960452
-7.809473
-2.831373
-7.874585
-2.920580
-9.180551
-2.292207
-8.773126
-0.460627
-9.124225
1.330571
-7.065162
1.562998
-4.307348
-1.028135
-1.770059
-0.845322
-0.825928
-3.035957
-8.841547
-2.406100
0.685559
1.280970
2.886262
-3.684847
-7.457098
-9.490332
-12.059139
-3.444973
-0.701939
2.058879
3.613582
-4.088395
-2.569116
-0.643264
1.878352
-4.991079