# vtk DataFile Version 1.0
vtk file 7swy_4:D:D_model1
ASCII
DATASET POLYDATA

POINTS 10016 double
-8.170000 -6.552000 -17.084000
-6.172000 -6.467000 -17.370000
-8.283000 -6.489000 -16.198000
-6.053000 -6.364000 -16.302000
-9.168000 -6.516000 -15.212000
-5.558000 -6.686000 -15.305000
-9.978000 -6.521000 -14.136000
-5.153000 -6.556000 -14.419000
0.531000 -6.403000 -14.402000
2.909000 -6.556000 -14.254000
3.841000 -6.540000 -14.314000
5.870000 -6.526000 -14.184000
-10.115000 -6.587000 -13.179000
6.459000 -6.516000 -13.155000
-9.916000 -6.568000 -12.266000
6.445000 -6.393000 -12.279000
-9.682000 -6.298000 -11.439000
6.592000 -6.362000 -11.301000
-10.109000 -6.376000 -10.427000
7.740000 -6.486000 -10.051000
-11.360000 -6.286000 -9.183000
7.860000 -6.465000 -9.112000
-12.065000 -6.556000 -8.075000
7.570000 -6.440000 -8.112000
-12.047000 -6.583000 -7.215000
7.699000 -6.575000 -7.269000
-11.130000 -6.459000 -6.378000
-8.105000 -6.260000 -6.233000
-3.441000 -6.623000 -6.245000
2.862000 -6.387000 -6.270000
6.367000 -6.591000 -6.207000
9.647000 -6.477000 -6.150000
-0.376000 -6.691000 -5.254000
2.359000 -6.326000 -5.341000
6.331000 -6.487000 -5.279000
10.387000 -6.477000 -5.141000
6.312000 -6.387000 -4.378000
10.339000 -6.231000 -4.267000
5.977000 -6.487000 -3.214000
9.893000 -6.586000 -3.196000
1.601000 -6.387000 -2.312000
9.940000 -6.656000 -2.162000
0.875000 -6.378000 -1.295000
10.676000 -6.543000 -1.223000
0.653000 -6.325000 -0.412000
11.000000 -6.387000 -0.379000
-0.570000 -6.415000 0.789000
10.698000 -6.407000 0.586000
-1.411000 -6.599000 1.911000
10.014000 -6.487000 1.647000
-1.135000 -6.686000 2.827000
9.732000 -6.408000 2.608000
-0.480000 -6.508000 3.848000
8.814000 -6.434000 3.839000
-10.387000 -6.228000 4.849000
-6.514000 -6.519000 4.895000
-0.521000 -6.281000 4.666000
8.569000 -6.512000 4.740000
-14.342000 -6.435000 5.683000
-6.275000 -6.428000 5.721000
-1.263000 -6.263000 5.770000
8.733000 -6.345000 5.621000
-16.059000 -6.477000 6.899000
-6.390000 -6.328000 6.563000
-2.532000 -6.271000 6.675000
9.011000 -6.318000 6.636000
-16.334000 -6.529000 7.799000
-7.059000 -6.550000 7.845000
-4.022000 -6.403000 7.785000
9.381000 -6.701000 7.707000
-16.218000 -6.587000 8.821000
-6.357000 -6.588000 8.758000
-5.235000 -6.520000 8.708000
9.463000 -6.620000 8.706000
-16.080000 -6.487000 9.721000
8.945000 -6.532000 9.670000
-16.098000 -6.488000 10.792000
6.838000 -6.305000 10.592000
-16.049000 -6.696000 11.828000
6.622000 -6.386000 11.545000
-15.183000 -6.478000 12.634000
5.867000 -6.332000 12.744000
-14.557000 -6.654000 13.829000
3.011000 -6.363000 13.718000
4.677000 -6.596000 13.807000
5.470000 -6.471000 13.472000
-14.237000 -6.491000 14.792000
2.366000 -6.451000 14.634000
-13.985000 -6.672000 15.708000
-4.248000 -6.320000 15.738000
-2.926000 -6.499000 15.697000
1.430000 -6.459000 15.592000
-11.609000 -6.577000 16.936000
-5.193000 -6.320000 16.714000
-11.025000 -6.487000 17.671000
-6.157000 -6.396000 17.755000
-10.490000 -6.654000 18.823000
-7.477000 -6.405000 18.698000
8.795000 17.470000 -13.268000
12.291000 17.289000 -13.129000
7.568000 17.531000 -12.227000
12.351000 17.501000 -12.417000
3.981000 17.476000 -11.116000
11.676000 17.490000 -11.170000
3.884000 17.391000 -10.310000
6.793000 17.454000 -10.275000
8.688000 17.516000 -10.266000
11.302000 17.495000 -10.468000
4.776000 17.383000 -9.158000
5.736000 17.514000 -9.402000
-16.354000 17.627000 -4.142000
-13.507000 17.396000 -4.209000
-16.581000 17.615000 -3.279000
-13.288000 17.513000 -3.165000
-16.548000 17.482000 -2.218000
-12.638000 17.284000 -2.165000
-16.145000 17.464000 -1.342000
-12.580000 17.489000 -1.408000
-15.088000 17.274000 -0.301000
-13.262000 17.559000 -0.370000
-15.701000 -6.508000 6.430000
-15.658000 -6.438000 12.062000
-14.859000 -6.693000 5.915000
-14.859000 -6.415000 13.242000
-13.778000 -6.415000 5.399000
-13.588000 -6.391000 15.961000
-12.935000 -6.586000 5.048000
-12.794000 -6.487000 16.333000
-11.865000 -6.576000 -8.754000
-11.654000 -6.443000 -6.758000
-11.963000 -6.333000 5.224000
-11.928000 -6.410000 16.639000
-10.899000 -6.656000 -9.786000
-10.761000 -6.415000 -6.123000
-11.012000 -6.406000 5.062000
-10.731000 -6.320000 18.197000
-9.708000 -6.551000 -14.752000
-9.784000 -6.503000 -11.935000
-9.796000 -6.602000 -10.812000
-9.794000 -6.487000 -5.761000
-9.928000 -6.586000 4.434000
-9.711000 -6.320000 19.315000
-8.849000 -6.544000 -15.572000
-8.739000 -6.649000 -5.869000
-8.754000 -6.399000 4.297000
-8.787000 -6.648000 19.494000
-7.831000 -6.584000 -17.798000
-7.577000 -6.506000 -6.455000
-7.627000 -6.408000 4.366000
-7.906000 -6.502000 18.953000
-6.970000 -6.466000 -17.957000
-6.694000 -6.387000 -6.807000
-6.829000 -6.331000 4.525000
-6.736000 -6.435000 7.219000
-6.679000 -6.469000 8.428000
-6.834000 -6.493000 18.259000
-5.796000 -6.461000 -15.712000
-5.894000 -6.587000 -6.952000
-5.716000 -6.720000 8.879000
-5.798000 -6.558000 17.437000
-4.809000 -6.292000 -14.087000
-4.960000 -6.428000 -6.721000
-4.776000 -6.503000 8.382000
-4.769000 -6.654000 16.219000
-3.894000 -6.587000 -14.048000
-4.002000 -6.532000 -6.447000
-3.586000 -6.504000 7.464000
-3.599000 -6.490000 15.615000
-2.826000 -6.405000 -14.084000
-2.972000 -6.449000 -5.883000
-2.895000 -6.412000 6.932000
-2.628000 -6.247000 15.741000
-1.794000 -6.487000 -13.768000
-1.946000 -6.426000 -5.525000
-1.918000 -6.459000 6.223000
-1.794000 -6.336000 15.775000
-0.751000 -6.646000 -13.489000
-1.006000 -6.537000 -5.461000
-0.967000 -6.476000 1.028000
-0.658000 -6.374000 3.108000
-0.903000 -6.471000 5.230000
-0.722000 -6.460000 15.925000
0.224000 -6.570000 -13.853000
0.077000 -6.358000 -4.904000
0.235000 -6.382000 0.341000
0.206000 -6.487000 16.091000
1.233000 -6.392000 -15.022000
1.035000 -6.451000 -4.649000
1.217000 -6.734000 -1.652000
1.147000 -6.657000 15.857000
2.287000 -6.494000 -14.866000
1.957000 -6.553000 -5.061000
2.248000 -6.438000 -2.971000
2.058000 -6.440000 15.009000
3.394000 -6.686000 -14.030000
3.317000 -6.487000 -6.709000
3.397000 -6.402000 -2.860000
3.450000 -6.384000 13.522000
4.443000 -6.367000 -14.587000
4.137000 -6.488000 -7.153000
4.373000 -6.417000 -2.507000
4.240000 -6.436000 13.542000
5.277000 -6.352000 -14.523000
5.106000 -6.391000 -7.143000
5.220000 -6.563000 -2.494000
5.245000 -6.611000 13.827000
6.246000 -6.299000 -13.903000
5.986000 -6.322000 -6.680000
6.202000 -6.547000 -3.632000
6.211000 -6.351000 12.270000
7.321000 -6.259000 -10.640000
7.414000 -6.517000 10.223000
8.272000 -6.453000 -6.738000
8.285000 -6.699000 10.094000
9.086000 -6.428000 -6.379000
9.152000 -6.535000 3.374000
9.150000 -6.386000 7.426000
9.251000 -6.572000 9.432000
10.127000 -6.288000 -5.782000
10.137000 -6.529000 -3.998000
10.257000 -6.390000 -1.875000
10.244000 -6.576000 1.182000
-15.763000 17.574000 -4.608000
-15.642000 17.467000 -0.822000
-14.894000 17.460000 -4.893000
-14.604000 17.473000 -0.173000
-14.023000 17.625000 -4.688000
-13.834000 17.301000 -0.069000
-12.917000 17.538000 -2.530000
-12.898000 17.482000 -0.739000
4.209000 17.340000 -11.628000
4.339000 17.538000 -9.668000
5.104000 17.366000 -11.994000
5.381000 17.308000 -9.181000
6.106000 17.522000 -11.811000
6.304000 17.341000 -9.608000
7.014000 17.348000 -11.956000
7.415000 17.521000 -10.682000
8.206000 17.477000 -12.914000
8.139000 17.548000 -10.630000
9.183000 17.417000 -13.509000
9.443000 17.408000 -9.756000
10.170000 17.461000 -14.025000
10.306000 17.501000 -9.715000
11.206000 17.385000 -14.016000
11.049000 17.271000 -10.069000
11.996000 17.622000 -13.474000
12.093000 17.486000 -11.776000
-17.802000 10.968000 -4.348000
-17.692000 16.781000 -4.317000
-16.696000 0.887000 -4.269000
-16.762000 2.966000 -4.491000
-16.857000 8.967000 -4.170000
-16.768000 17.114000 -4.447000
-15.567000 -0.618000 -4.194000
-15.773000 3.848000 -4.446000
-15.841000 5.943000 -4.308000
-15.545000 18.662000 -4.132000
-14.763000 -1.139000 -4.350000
-14.660000 18.759000 -4.098000
-13.826000 -2.094000 -4.228000
-13.792000 17.987000 -4.179000
-12.673000 -3.861000 -4.206000
-12.761000 16.008000 -4.068000
-11.704000 -4.356000 -4.104000
-11.708000 15.356000 -4.052000
-10.845000 -4.615000 -4.515000
-10.722000 15.111000 -4.258000
-9.743000 -3.945000 -4.382000
-9.694000 14.888000 -4.179000
-8.594000 -3.211000 -4.349000
-8.794000 14.839000 -4.351000
-7.634000 -2.116000 -4.307000
-7.697000 0.260000 -4.180000
-7.861000 2.826000 -4.175000
-7.855000 6.887000 -4.305000
-7.789000 10.961000 -4.355000
-7.860000 15.304000 -4.231000
-6.908000 12.970000 -4.450000
-6.894000 15.561000 -4.031000
-4.639000 -12.153000 -4.338000
-4.875000 -8.885000 -4.460000
-3.627000 -12.123000 -4.300000
-3.888000 -8.421000 -4.520000
-2.778000 -11.807000 -4.309000
-2.906000 -11.066000 -4.247000
1.412000 -5.975000 -4.193000
1.138000 0.239000 -4.302000
2.253000 -6.013000 -4.278000
2.250000 0.937000 -4.130000
3.192000 -5.024000 -4.256000
3.173000 1.748000 -4.341000
4.237000 -4.035000 -4.418000
4.142000 1.967000 -4.159000
5.064000 -4.116000 -4.294000
5.101000 2.957000 -4.474000
6.250000 -9.758000 -4.179000
6.204000 -7.088000 -4.377000
6.163000 -5.183000 -4.324000
6.057000 5.241000 -4.536000
7.009000 -10.265000 -4.252000
7.283000 5.892000 -4.273000
8.200000 -10.161000 -4.427000
8.436000 5.410000 -4.271000
9.231000 -9.300000 -4.322000
9.216000 4.943000 -4.179000
10.169000 -6.849000 -4.516000
10.235000 3.847000 -4.351000
-8.697000 -7.679000 19.534000
-8.977000 -7.016000 19.712000
1.425000 -11.878000 19.755000
1.317000 -9.203000 19.697000
2.248000 -12.202000 19.796000
2.135000 -8.723000 19.690000
2.237000 10.171000 19.888000
2.453000 12.679000 19.829000
3.204000 -12.621000 19.493000
3.177000 -7.830000 19.759000
3.199000 7.992000 19.888000
3.373000 12.957000 19.797000
4.226000 -12.068000 19.508000
4.019000 -7.400000 19.553000
4.117000 6.685000 19.726000
4.224000 12.828000 19.877000
5.145000 -10.770000 19.492000
5.219000 -7.878000 19.684000
5.050000 5.865000 19.868000
5.153000 11.742000 19.962000
6.266000 4.733000 19.989000
6.094000 10.900000 19.807000
7.378000 3.972000 19.912000
7.405000 9.283000 19.843000
[...]
POINT_DATA 10016
SCALARS Potential double
LOOKUP_TABLE default
19.866572
19.956619
14.057698
20.164178
11.495614
18.519226
11.588349
16.735145
1.980042
0.238183
1.096558
0.450621
11.149356
0.020698
11.064652
0.519042
10.439991
2.832273
9.998760
5.752625
9.581036
6.930302
9.168539
7.801193
8.255524
8.521508
6.350627
8.346449
6.267774
8.352962
8.402466
8.549808
6.849027
8.905672
9.648354
6.767660
8.639353
4.633863
7.472545
1.744447
7.403759
-1.197961
6.998944
-5.006034
5.659272
-5.874349
8.795225
-5.173465
9.417510
-0.633027
9.790591
0.923328
8.138753
1.685502
4.709421
9.264673
7.702431
1.880544
4.718550
8.979950
8.670976
4.146594
2.353477
8.005263
9.146356
6.387613
2.162784
6.529097
9.086142
4.815543
2.578372
3.994905
5.195606
5.994571
2.408414
9.846534
1.497064
13.163646
2.525877
16.262299
3.096531
15.476856
5.198935
13.388281
17.481063
14.788550
7.317992
15.189107
9.276142
12.133507
15.920271
14.355188
13.674732
11.855578
13.907135
8.953518
10.153806
8.716431
10.361941
4.906551
11.636109
3.158115
4.152902
2.653797
2.709132
8.501695
7.274190
5.399495
3.640994
4.097066
-5.941525
-7.731887
-5.403272
-9.225949
-2.786813
-9.084165
-1.682324
-7.704390
-3.854382
-6.122520
2.997386
2.044304
4.216249
5.003534
4.857038
11.061832
4.487441
11.398525
9.445185
7.936529
3.868473
12.597525
9.627597
6.830123
3.964219
11.660199
12.889312
11.364924
9.180221
7.571387
6.237940
8.454340
11.726958
8.857816
6.800361
7.067819
20.816245
8.042686
7.481116
7.003601
18.233401
6.961118
9.199660
7.640797
5.051864
8.469235
19.455167
4.895823
5.054481
10.030976
14.231831
4.587856
7.305169
12.637172
14.712137
5.904464
9.350967
13.598960
11.864996
8.064816
9.948734
11.562774
8.582783
8.653438
8.265898
12.265078
4.999310
6.944852
8.598893
8.976404
7.691123
13.323969
2.200555
7.940555
6.399695
13.990732
1.401627
7.775795
6.925704
13.550217
0.913934
6.394784
8.429554
15.001712
0.546740
8.822578
7.963239
14.671248
1.596971
8.747839
7.177224
15.335718
0.983428
9.441742
6.561224
19.428414
0.519052
8.687124
6.855904
16.043691
3.872439
13.826285
8.778014
12.909794
9.072974
1.935937
6.152488
9.020762
7.916479
4.093558
-2.992176
-2.132773
-6.361785
-2.787568
-6.404983
-4.892812
-7.168244
-5.389127
-9.875971
-6.663105
5.297988
2.699782
6.661352
3.245711
10.491025
5.479435
11.390457
8.349261
12.260162
7.775865
9.603542
6.377259
9.833265
6.042214
8.488580
5.069987
5.096111
2.001148
3.187257
-4.111373
13.631422
12.850887
7.224716
-4.891530
13.738144
10.037955
11.166629
-7.408392
10.464260
-8.085871
5.578633
-8.945670
-0.852364
-6.085922
-0.121586
-4.670298
-0.288155
-2.199463
1.395603
-0.887682
4.132920
0.785038
5.247258
7.793075
7.784001
7.203881
6.552230
2.544562
5.167643
4.016355
8.624680
8.525362
8.150302
8.462670
6.995353
6.527329
7.166690
6.245429
9.064147
6.286397
8.257978
5.755025
7.509508
5.000691
6.930822
4.483460
10.648564
8.676241
8.032712
6.214410
13.394155
5.227965
9.200872
3.885479
6.023348
4.139680
5.169736
4.363481
8.142246
9.509822
14.196129
13.560042
13.924231
11.333727
14.643786
16.742893
16.375676
10.689930
15.881090
16.231013
16.044446
13.017101
17.555370
16.045856
13.488730
13.445075
14.982097
14.916689
19.839428
17.061674
19.414125
15.855785
14.141167
18.259864
16.363571
20.532551
14.902033
15.887094
14.437913
14.662636
14.826862
12.524585
15.048676
9.455510
9.281411
9.607976
18.107608
17.910984
5.493026
3.524732
13.116412
14.817327
16.114007
10.494598
5.043699
1.282557
11.783995
1.114203
11.061410
1.340177
10.031777
2.539209
9.475025
4.580289
9.825994
4.771789
8.761479
6.448368
4.848772
7.433778
4.582765
6.866990
6.104981
7.159977
9.068849
8.017367
8.825048
8.153551
9.518828
6.564377
7.518200
9.685532
8.575461
4.733144
6.939545
7.706210
7.153684
2.061648
6.835855
-1.628734
7.169743
-6.362302
6.481951
-7.114605
5.142263
-6.504446
5.117299
-2.409071
6.353210
-1.021455
7.010564
8.189413
8.254790
0.150127
5.309227
8.761132
7.992455
0.577680
6.118235
2.777792
3.327470
8.729073
8.256699
3.724987
4.915483
8.101885
10.517312
7.213236
5.120692
7.626375
8.670079
8.887421
5.752678
10.243330
5.368427
13.790042
3.747304
16.189536
3.710673
16.561409
5.376944
10.863745
7.102529
13.539764
7.963652
15.045303
10.085619
10.780157
12.090472
14.967987
11.701347
11.513506
12.255348
7.945776
8.476217
9.029531
6.626263
4.196657
9.183616
2.499886
8.445837
4.038418
-6.783070
-8.645225
-6.896073
-9.412149
-5.464467
-8.674513
-6.395245
-7.544154
4.969201
5.457729
5.741891
7.371697
5.156096
7.336805
3.802631
10.947278
2.536513
10.613310
10.085539
3.082511
2.090175
10.434655
13.496876
11.199197
9.560830
4.034701
5.806698
8.609184
14.572724
5.915302
8.363713
7.072604
16.856989
8.217627
7.883664
8.705557
18.270794
7.488173
8.282354
7.847946
12.348172
5.528248
8.357043
10.014094
13.189830
6.764932
8.655954
10.972769
14.138246
7.044693
8.799201
10.990161
12.859054
6.934488
10.246225
13.784508
8.480838
7.664039
8.653915
11.858737
6.082108
7.412205
7.022636
11.812518
3.936116
6.986755
6.529276
13.241512
4.607527
7.591627
6.905932
5.722483
4.767299
13.883969
4.172340
14.899362
4.639822
8.092407
8.292982
11.264634
4.878562
9.123942
6.982071
13.230462
2.471796
8.804252
7.155786
15.174046
1.874500
9.255845
7.651647
16.760978
2.875050
12.508452
4.012477
10.060103
7.401180
0.604930
7.795529
-3.912694
-7.885469
-6.067878
-8.002333
-7.030193
-8.944396
-6.845248
7.358217
6.823228
5.878790
5.384404
4.704141
2.311358
0.304513
-2.018840
13.611027
3.222737
2.876377
-4.058765
15.069899
-7.469361
13.838128
19.132636
13.929743
-8.468152
3.344178
15.425798
11.512100
-9.100056
-0.130701
16.154263
13.486827
-6.946175
0.217336
13.457102
10.856500
15.758197
10.839350
-7.068097
3.551676
9.981818
8.159697
-5.035591
4.717149
8.327567
8.494912
-2.690505
5.575096
7.808392
7.950532
6.923925
6.586225
-0.591274
9.420308
8.791837
5.653618
1.687881
4.709594
2.642589
5.185756
4.378231
6.706219
7.571193
9.719946
6.391468
8.135782
5.849677
7.270946
4.596148
7.137327
2.992423
13.509902
5.929179
18.119184
5.980850
11.130694
4.981302
5.089116
5.083177
2.287629
0.932939
1.517325
1.442490
14.169741
12.590225
15.419775
23.749330
13.256944
10.816229
15.664904
21.221282
11.369679
11.354718
18.697741
15.380646
19.653623
13.441387
21.600236
17.474108
18.154862
16.483207
15.385976
18.102220
17.671700
18.012226
15.514829
18.744338
11.271545
15.793478
15.172842
12.374966
14.034957
11.571941
13.517011
10.739462
8.492523
5.652845
7.097897
4.438851
16.218974
3.907662
14.954442
3.105991
11.939194
10.803150
10.930694
2.538460
9.157522
2.213498
7.651171
2.080500
6.741356
3.201358
14.975799
5.058167
8.567232
6.542659
3.055365
5.961767
0.745410
4.360690
8.472173
6.692790
-0.977588
-0.490692
7.293893
9.237570
8.694656
5.078111
8.496764
6.814800
-0.249812
0.958405
7.286182
7.033413
7.828376
4.805618
7.159480
1.705324
8.531034
-2.534472
8.493790
-5.442057
6.146344
-6.902664
5.644632
-5.912356
5.745468
-2.807806
6.959503
-1.457960
8.371790
8.728919
8.843076
-0.226564
5.038995
7.883200
9.004446
1.411333
5.831098
8.169417
8.452264
4.239799
6.405937
7.254838
10.862804
8.345359
6.292998
12.457080
7.161132
11.791966
5.692157
17.112717
7.514488
17.594443
7.752306
15.987998
8.046023
10.104247
8.430185
11.638371
8.409311
13.515522
11.597052
10.956478
11.678475
14.067503
11.421545
10.142237
13.189798
8.717613
6.207212
6.503056
6.039331
6.686262
4.694654
6.819719
7.549995
9.891059
2.594596
11.458920
11.252776
12.064834
0.085827
-0.933733
1.751624
10.951844
7.035423
0.883741
3.103819
12.148792
9.158737
0.365719
6.308525
10.567962
9.674511
1.961769
8.923116
9.587567
14.776496
5.050323
8.442216
9.166643
16.341472
6.716391
7.649929
8.455911
13.826158
7.012712
7.620940
10.795257
10.198355
8.733289
9.233279
11.443495
13.084915
7.944088
9.256241
9.728687
12.745892
7.932960
10.300302
9.793162
12.054948
8.609785
9.558850
11.838117
9.005142
8.362370
8.763622
12.737021
9.050631
7.617154
7.235723
12.561485
8.031326
6.357774
6.685105
14.506285
6.167394
6.930304
6.893857
10.922704
6.303565
6.983717
8.041255
12.439765
7.634381
7.619010
7.317527
14.419561
5.969052
8.016681
7.514389
15.154325
5.048896
15.765671
5.403278
3.734929
1.909515
11.231012
2.542841
11.784655
6.865563
-1.691741
7.617597
-1.202439
-6.542482
-4.208634
14.040695
10.347523
1.994474
0.769936
15.234210
6.294346
3.315233
-1.801268
14.470455
-6.680485
10.666808
-8.025265
16.212201
20.287555
11.187990
-8.640931
1.743666
4.261866
10.556643
-8.829746
1.564197
5.917514
14.319759
13.276467
7.555725
-6.500099
4.708841
9.794440
12.676403
10.737447
6.949799
-5.491417
5.962877
9.148246
10.458552
8.349842
8.070760
-3.111460
7.203169
9.323658
9.624616
9.208476
7.459260
-1.373368
5.594192
-0.080178
4.035170
0.414044
3.618533
1.264786
7.220782
5.961058
7.723591
5.680186
7.966106
6.397930
7.406765
4.417219
7.441394
1.358659
10.097423
5.207306
11.971700
5.005716
9.330755
4.854796
1.460742
5.707440
-0.344129
-3.030714
0.404337
2.367490
2.146771
2.513744
15.913934
18.719553
20.973901
18.635278
23.491331
15.930332
20.214524
15.080771
19.655422
13.982706
16.717361
16.109092
21.191708
19.817006
17.335382
17.834570
19.285349
19.893338
15.317933
17.373302
12.650990
16.676464
18.098704
14.307956
17.829775
15.332305
16.859340
15.746042
8.681304
4.749359
14.106687
10.172519
8.967380
3.998276
16.122179
2.833446
13.444120
2.100314
12.034248
1.650116
8.363198
1.517417
10.619620
1.225401
10.916740
2.913117
14.355047
5.056815
15.202805
5.559914
3.528030
5.532393
-0.049436
6.506888
6.788356
6.191067
-1.460848
2.684309
5.764357
9.002867
8.205243
6.238612
6.360850
6.269373
-0.080926
3.611590
6.714461
4.648660
0.168759
5.950436
7.100392
2.033644
1.927669
3.006291
8.172128
-1.660433
8.475306
-4.390389
6.687156
-5.622381
6.279632
-7.606819
6.416264
-7.027083
7.457845
-2.001645
9.167602
0.248125
2.999534
2.469669
6.043678
8.952796
9.397882
2.617357
6.635488
9.497906
7.902480
6.096970
7.066440
8.451789
6.897287
8.491576
7.870125
16.153681
8.689133
12.308996
7.815197
16.396294
6.306045
19.049199
7.819756
16.222575
10.299111
10.935845
9.752789
11.752172
10.928981
13.451355
11.349029
10.595570
10.860429
14.563822
11.807270
9.943643
15.311700
14.947905
8.220917
8.695878
8.674907
7.583580
4.046795
7.913196
-0.628044
1.882330
2.332004
6.173354
10.246344
1.770494
2.737055
11.291049
10.117534
4.145257
3.549014
10.284888
9.130117
5.611216
4.737175
13.209391
8.940621
2.715466
7.293008
10.490000
13.911738
4.213759
8.333212
9.706143
16.062251
7.379246
8.205937
10.375817
16.379440
8.415481
8.960412
10.754378
13.744198
7.643297
8.203217
10.330326
12.768786
7.773975
8.574186
9.142988
13.362721
6.570610
8.625891
10.349726
12.252623
6.488025
7.590628
13.321924
10.755897
7.007181
9.028122
14.314894
10.661940
7.707631
7.563007
13.595516
9.859705
7.382109
6.921281
14.898906
9.410882
10.614866
8.318300
7.058704
7.115199
12.060458
7.822266
6.998217
7.729095
13.260006
6.301405
14.459396
5.087443
15.918463
4.812242
1.596867
1.104347
18.092870
1.252507
13.679417
3.262839
5.589040
6.392723
-2.106007
7.066164
-0.370182
-5.015756
-3.738577
-6.772008
-6.498612
14.342093
10.050100
14.573042
7.558108
5.404184
1.129108
14.049683
6.647973
5.323703
-4.018075
15.548370
4.708253
4.030811
-6.144244
13.158857
6.762233
4.718748
-8.093589
9.059017
-7.471813
9.669061
-1.078713
9.679020
-1.525986
8.629087
-1.544519
7.387933
0.404883
5.300636
0.470634
4.526714
1.917686
3.368201
1.636150
10.257416
9.035786
8.132953
7.026333
9.756937
7.212631
9.568648
6.134190
5.723526
3.141335
7.405088
3.918672
6.774527
6.231898
7.131248
4.657276
5.710611
5.193729
-1.433896
3.799025
-3.523174
-6.278232
-3.267037
4.134306
-0.650980
3.703620
16.549760
20.242611
21.434586
23.733950
24.355123
18.279141
25.482673
14.604819
23.142182
14.644711
19.467638
15.530094
25.071177
22.136018
17.662123
16.953229
26.692575
15.942711
13.825744
15.405128
22.488149
17.660850
19.145228
16.279895
16.852387
15.084655
18.657041
13.393975
17.785313
14.501833
8.231384
5.960204
17.141899
12.308210
8.166885
4.612540
21.944849
10.107124
7.483090
3.170398
22.142778
1.804936
14.213954
0.616918
11.151935
0.641955
12.817878
11.948326
9.882325
-2.192731
10.721185
-0.106033
11.064672
1.773882
4.051668
5.284483
10.514194
7.282725
6.619085
4.141089
1.431586
4.454406
0.086633
7.904915
8.078341
4.758654
1.035997
6.495265
6.370329
7.192411
2.307804
5.303868
7.481623
4.320744
5.373629
6.953284
6.629799
0.817017
2.326986
8.062047
6.250427
-0.845784
7.123155
-2.343534
6.317201
-4.746986
5.210096
-5.684854
6.189988
-5.610041
7.589764
-4.983320
8.024122
-1.201269
3.581210
3.776990
8.674341
7.919559
8.171136
1.848671
6.522905
9.646633
7.522184
3.821918
8.021688
8.959300
6.719224
8.050635
9.379089
7.313426
9.929968
12.611542
10.436628
13.381004
10.112825
13.561540
7.051842
14.646033
9.201015
14.608853
11.781545
14.901151
11.250769
14.569802
12.631909
12.110496
13.574425
13.025924
11.201778
12.469052
14.907030
14.322699
8.722384
11.878423
5.903572
9.362414
2.776832
3.766226
4.187264
10.962160
11.010634
8.947718
1.797728
2.362938
3.431539
8.808968
11.052124
2.528210
0.587968
2.942280
3.564099
7.300700
13.668626
4.513315
5.480011
12.606263
10.062373
6.780804
5.628924
10.140313
10.688508
7.943553
8.668475
13.104051
14.068038
5.453352
8.824276
11.328507
15.658767
6.958292
9.794597
12.473180
18.872708
7.561011
10.134031
11.797078
17.280782
7.472313
7.594967
11.236910
14.612652
7.643089
8.398139
9.973296
12.687672
7.254034
8.528137
10.834187
14.032300
6.523054
8.030477
14.479720
13.329309
5.227311
8.363117
7.865918
6.551369
14.124855
11.183315
6.492170
7.676215
14.118828
9.747880
6.676822
6.988908
13.324586
9.091157
6.736589
5.710240
11.376239
7.623924
13.021048
7.235232
17.578461
7.457510
12.351923
7.159118
13.563097
3.960694
15.924587
2.298840
0.608811
-0.147045
14.055766
-2.301121
4.636576
4.717320
6.076601
-3.021198
0.477847
2.868893
6.144062
7.150866
1.741860
-1.210127
-3.920633
4.867593
7.588391
-3.691101
-5.656543
5.176491
9.882631
-5.275811
-5.480539
15.086419
16.490415
19.193376
14.121667
15.295253
15.279611
21.379431
14.425371
18.051892
10.970536
18.523281
9.709230
4.255230
2.996566
16.425815
9.236666
5.805058
0.187051
14.643039
11.687067
5.254144
-5.067644
4.442724
-6.239924
8.912213
3.521198
8.852830
1.510697
6.647362
2.625164
5.757052
4.508354
5.554624
4.729033
4.212813
4.442730
8.799533
8.377396
7.184311
6.330158
6.263658
6.563570
6.867657
6.760036
7.866369
7.241508
8.119456
6.452191
5.860634
5.428554
5.409228
6.472568
3.087565
6.448878
1.934977
4.975758
0.523035
5.737542
-1.409300
3.727384
-2.728880
3.859672
-5.603985
3.379984
29.041921
22.250272
26.434846
17.834007
22.353189
18.560863
23.250749
16.775854
20.499243
16.936336
20.497306
20.538764
17.407182
15.466460
20.749498
14.075566
14.408526
13.535001
21.948136
15.816317
19.048230
17.356929
15.645753
13.749462
17.572615
12.762908
15.627426
12.773852
17.689479
13.409114
6.101060
4.858618
19.147582
9.762048
8.596626
2.831092
15.840083
0.713596
12.744559
-1.849437
10.914683
-3.238242
8.985748
2.007548
11.759212
5.813930
10.722456
7.164655
10.193039
6.572336
5.576071
4.650901
5.903621
9.562456
2.591895
6.911079
6.652642
3.950836
4.082510
4.352497
7.793095
4.539946
6.316770
5.551709
7.879728
6.063939
7.654226
7.111122
7.421299
3.729016
9.560838
7.478111
7.244584
2.012273
5.962219
8.611151
6.613638
1.633243
6.657566
-0.085165
5.936299
-1.561292
1.962905
-4.099970
3.966490
-3.922102
8.443684
-3.842499
8.502427
-4.073815
8.708945
-0.714683
7.641397
5.363994
9.277697
8.759221
7.707723
3.590333
11.728383
7.518003
11.042061
7.785731
7.119228
5.627878
15.626126
8.282239
11.456054
7.775796
7.845143
7.439086
10.292996
9.487893
8.570494
11.089528
10.096742
10.147705
11.064126
12.696153
9.250628
16.719834
9.286281
14.740101
11.164194
13.376672
11.997390
14.839058
10.344071
17.706828
13.220401
15.099064
22.427892
20.708653
21.204329
24.316322
9.903953
12.180012
7.241507
13.838819
6.971047
9.900283
6.832436
10.455467
11.000905
8.135758
4.905802
5.103988
6.540896
8.082839
11.371624
3.842581
3.523559
5.374881
6.398980
6.737557
11.464691
9.341485
10.951389
6.135629
10.576292
12.431519
8.652052
6.998435
11.372244
12.144494
10.251732
8.230330
10.129744
10.681674
14.786347
6.512198
9.157472
9.122348
16.156974
5.244396
8.556597
8.680646
13.569876
5.709512
10.257060
11.790341
13.881375
6.080582
8.083965
12.831524
13.713775
6.680214
8.931078
11.010751
11.939059
7.857104
9.454511
13.092093
13.888559
7.721784
8.301235
14.122509
14.591543
7.971687
7.638425
13.375036
11.461620
6.701724
7.813466
15.226699
10.485006
6.617211
7.492112
13.653069
7.832790
6.224448
4.966426
13.430187
7.776116
4.188781
3.535895
11.174517
7.753693
12.788130
7.858397
16.341006
7.458039
12.203111
3.687379
15.148802
1.729700
12.552950
23.203612
20.596891
-3.616855
5.115973
21.799237
24.291391
-4.042373
5.573073
5.408923
0.622273
-0.123188
11.820699
1.326802
-3.434341
4.419514
17.970402
-2.017318
-3.936029
6.191490
12.025131
13.688976
16.582860
15.151136
13.805537
14.886025
17.620788
15.696436
13.188861
16.641190
12.139469
21.446799
11.468671
17.553944
12.946781
5.056671
2.029408
4.350763
0.842329
9.147360
4.473155
7.697905
4.975886
6.725738
8.720222
7.024659
12.167810
7.357873
7.990362
5.880236
5.820241
4.920868
4.932692
5.719157
6.378995
8.093707
7.219889
6.449926
4.652116
3.972488
6.442771
6.462641
5.664088
5.612669
6.419020
3.460555
6.411818
-0.096127
5.014439
-1.120067
5.919100
0.126007
3.537379
-1.853180
3.224729
-6.821052
3.310268
-6.870849
1.132824
20.776615
22.284341
18.630430
18.714209
21.257687
21.033421
17.606131
15.749282
21.730533
14.560865
25.120702
14.314084
18.254264
14.482911
17.012174
14.935243
15.615580
16.208176
18.219776
14.412069
15.631972
13.396162
16.007068
12.852960
15.662738
16.642125
5.562437
5.424251
15.066290
2.364707
12.947276
-1.165831
12.246822
-3.594354
11.113227
-2.001335
10.244948
5.815967
10.033722
6.194104
9.283749
6.226465
7.653702
7.536844
5.465421
6.578005
6.854024
8.400088
5.843545
4.043375
7.767091
5.981103
10.153337
3.950792
6.874268
4.960147
13.086160
6.475531
7.731756
3.885206
13.511631
7.797393
7.065984
1.732652
14.534968
8.217585
7.907740
1.397940
9.725001
9.016122
6.485060
2.190858
6.550761
1.929100
5.835234
1.195589
6.042332
-0.500486
6.202292
-0.697814
7.827742
-2.885300
7.762471
0.183620
-0.289849
-3.122111
8.236243
1.511501
10.559315
14.238686
7.021539
3.609706
11.697616
9.357724
6.328400
4.543553
18.336508
9.122036
9.741647
10.239036
8.162869
6.137206
7.865126
4.942473
14.277913
11.520243
11.772966
6.218233
11.511665
8.758630
10.745353
12.817036
12.328229
10.362114
16.637611
17.020404
12.877717
10.256271
15.708724
19.047090
10.573401
15.649990
13.885441
20.039158
12.457410
18.087801
13.896596
15.580942
14.553216
16.465908
13.554826
14.097683
16.736526
18.118245
12.910344
14.266781
25.360163
18.695100
21.911251
18.377757
22.758766
24.089145
11.755146
13.391460
10.698985
14.660701
11.235989
15.250046
10.081272
14.898514
15.641850
10.911007
7.177597
11.702211
13.035518
9.816659
9.557165
8.654380
11.600913
8.967963
11.973126
13.612496
10.319489
8.735161
12.113221
13.078387
9.242910
8.431136
11.749804
12.574848
12.341163
8.296078
9.532611
11.068426
14.599405
6.218160
7.688703
9.557374
14.196423
5.379766
9.941874
10.921208
12.287704
4.936833
9.996716
13.837671
11.993256
7.827730
9.579907
15.030147
11.844185
6.762984
9.912963
12.767326
14.870494
7.475840
8.719231
13.374903
15.207742
8.620649
7.724612
14.257554
14.663863
7.571866
7.678853
14.663808
11.452902
7.410714
8.160068
13.576825
10.256981
6.184356
6.426606
14.722619
7.908264
14.252025
6.990970
13.490567
5.823794
4.891488
8.429695
16.136164
7.727916
7.604777
9.861363
11.031908
4.903720
15.649442
25.074076
22.042674
-0.389387
-0.395200
0.825712
9.207761
14.394531
16.960302
24.950815
20.608141
-4.094060
-0.057811
16.483464
17.698485
19.715585
25.807580
-3.339173
-2.053187
16.192724
16.660275
1.452775
6.601652
2.221450
-2.810327
17.356793
18.908867
7.257436
10.496823
0.564732
-3.296946
6.842655
13.374506
6.799540
16.244013
7.245624
9.438593
11.729630
12.462922
10.572187
11.940417
12.726428
11.360015
11.387139
11.940001
11.312330
13.351900
15.798408
15.776556
17.583185
14.551803
7.374214
7.179053
8.561214
8.128770
9.789381
9.465482