# vtk DataFile Version 1.0
vtk file 8d14_1:A:A_model1
ASCII
DATASET POLYDATA

POINTS 21770 double
-1.650000 -16.178000 -38.764000
-0.280000 -16.427000 -38.562000
-2.188000 -16.112000 -37.752000
5.627000 -16.481000 -37.676000
-1.485000 -16.477000 -36.796000
6.323000 -16.427000 -36.716000
-0.319000 -16.485000 -35.732000
6.532000 -16.303000 -35.732000
-5.232000 -16.114000 -34.700000
-3.192000 -16.305000 -34.494000
0.417000 -16.292000 -34.637000
7.613000 -16.398000 -34.832000
-5.131000 -16.178000 -33.916000
-3.306000 -16.233000 -33.629000
0.859000 -16.279000 -33.776000
8.623000 -16.205000 -33.742000
1.449000 -16.356000 -32.826000
8.898000 -16.218000 -32.748000
0.883000 -16.001000 -31.739000
8.864000 -16.259000 -31.677000
0.061000 -16.061000 -30.657000
8.618000 -16.259000 -30.677000
0.051000 -16.021000 -29.717000
8.574000 -16.259000 -29.677000
-0.060000 -16.257000 -28.777000
8.449000 -16.200000 -28.693000
-0.217000 -16.237000 -27.844000
8.405000 -16.307000 -27.677000
-0.016000 -16.103000 -26.819000
8.162000 -16.298000 -26.876000
0.270000 -16.407000 -25.899000
5.824000 -16.236000 -25.545000
-0.620000 -16.241000 -24.768000
5.790000 -16.114000 -24.608000
-3.106000 -16.259000 -23.554000
6.390000 -16.114000 -23.409000
-3.399000 -16.159000 -22.777000
7.301000 -16.315000 -22.440000
-3.798000 -16.204000 -21.932000
7.523000 -16.259000 -21.677000
-4.189000 -16.310000 -20.799000
7.295000 -16.109000 -20.728000
-4.587000 -16.275000 -19.757000
2.500000 -16.246000 -19.688000
3.611000 -16.430000 -19.676000
6.407000 -16.168000 -19.765000
-6.387000 -16.226000 -18.735000
1.553000 -16.176000 -18.479000
-7.031000 -16.035000 -17.705000
1.423000 -16.306000 -17.577000
-6.716000 -16.417000 -16.604000
1.338000 -16.042000 -16.654000
-6.673000 -16.309000 -15.605000
0.903000 -16.434000 -15.584000
9.966000 -16.283000 -15.614000
12.354000 -16.352000 -15.467000
-6.400000 -16.259000 -14.573000
1.287000 -16.268000 -14.540000
8.021000 -16.069000 -14.591000
12.842000 -16.356000 -14.536000
-5.763000 -16.479000 -13.573000
1.739000 -16.462000 -13.570000
7.701000 -16.251000 -13.748000
13.387000 -16.229000 -13.453000
15.740000 -16.117000 -13.627000
19.274000 -16.026000 -13.610000
-5.694000 -16.241000 -12.803000
2.585000 -16.266000 -12.685000
7.405000 -16.135000 -12.858000
13.688000 -16.393000 -12.694000
14.865000 -16.210000 -12.770000
18.777000 -16.292000 -12.475000
-6.415000 -16.178000 -11.692000
4.429000 -16.355000 -11.635000
5.756000 -16.254000 -11.775000
18.752000 -16.359000 -11.577000
-8.338000 -16.293000 -10.619000
19.001000 -16.290000 -10.799000
-8.681000 -16.363000 -9.677000
19.388000 -16.331000 -9.710000
-8.583000 -16.294000 -8.777000
19.353000 -16.259000 -8.677000
-8.353000 -16.439000 -7.790000
19.288000 -16.188000 -7.674000
-8.618000 -16.388000 -6.677000
18.984000 -16.179000 -6.590000
-8.721000 -16.313000 -5.841000
18.671000 -16.259000 -5.677000
-9.510000 -16.199000 -4.647000
18.829000 -16.226000 -4.583000
-9.651000 -16.428000 -3.614000
19.115000 -16.310000 -3.733000
-9.548000 -16.259000 -2.677000
18.741000 -16.319000 -2.799000
-9.561000 -16.159000 -1.777000
18.671000 -16.159000 -1.777000
-9.459000 -16.239000 -0.677000
18.865000 -16.316000 -0.839000
-9.613000 -16.180000 0.354000
18.910000 -16.206000 0.117000
-10.244000 -16.417000 1.417000
19.651000 -16.451000 1.315000
-10.413000 -16.287000 2.390000
21.747000 -16.277000 2.430000
-11.291000 -16.223000 3.367000
22.321000 -16.066000 3.416000
-12.249000 -16.259000 4.424000
21.885000 -16.494000 4.347000
-12.248000 -16.259000 5.287000
21.443000 -16.272000 5.279000
-11.540000 -16.359000 6.380000
20.947000 -16.043000 6.192000
-11.118000 -16.288000 7.154000
15.711000 -16.340000 7.383000
17.881000 -16.498000 7.278000
20.776000 -16.182000 7.220000
-11.056000 -16.155000 8.156000
14.661000 -16.352000 8.337000
18.895000 -16.509000 8.222000
20.259000 -16.290000 8.124000
-11.314000 -16.198000 9.156000
13.854000 -16.358000 9.514000
-11.394000 -16.186000 10.148000
13.969000 -16.433000 10.314000
-11.359000 -16.263000 11.323000
16.816000 -16.328000 11.388000
-11.566000 -16.359000 12.423000
17.406000 -16.310000 12.438000
-11.618000 -16.159000 13.223000
17.821000 -16.225000 13.254000
-11.108000 -16.305000 14.104000
18.526000 -16.314000 14.440000
-10.533000 -16.360000 15.151000
18.518000 -16.070000 15.284000
-6.401000 -16.389000 16.208000
4.654000 -16.193000 16.355000
6.237000 -16.375000 16.547000
17.563000 -16.189000 16.406000
-4.466000 -16.434000 17.444000
3.517000 -16.093000 17.296000
6.743000 -16.259000 17.455000
16.825000 -16.337000 17.488000
-3.455000 -16.322000 18.444000
2.509000 -16.234000 18.219000
7.347000 -16.487000 18.363000
15.908000 -16.253000 18.585000
-1.701000 -16.180000 19.305000
0.756000 -16.069000 19.211000
9.767000 -16.467000 19.297000
15.401000 -16.259000 19.399000
10.765000 -16.488000 20.261000
14.489000 -16.326000 20.251000
-1.473000 7.827000 -30.682000
0.612000 7.668000 -30.564000
-2.350000 7.717000 -29.637000
2.600000 7.682000 -29.539000
-2.561000 7.607000 -28.677000
3.440000 7.660000 -28.664000
-2.433000 7.741000 -27.622000
4.541000 7.574000 -27.613000
-1.478000 7.635000 -26.543000
4.612000 7.841000 -26.777000
-1.234000 7.641000 -25.577000
4.425000 7.689000 -25.748000
-1.434000 7.808000 -24.686000
4.460000 7.678000 -24.657000
-14.245000 7.787000 -23.570000
-12.233000 7.584000 -23.688000
-10.406000 7.847000 -23.723000
-8.348000 7.703000 -23.704000
-1.644000 7.803000 -23.820000
4.312000 7.907000 -23.821000
-14.624000 7.741000 -22.677000
-7.414000 7.688000 -22.869000
-2.566000 7.821000 -22.722000
2.743000 7.898000 -22.656000
-14.472000 7.708000 -21.626000
2.247000 7.807000 -21.898000
-13.234000 7.726000 -20.590000
0.992000 7.616000 -20.431000
-12.474000 7.680000 -19.562000
0.834000 7.626000 -19.510000
-12.128000 7.777000 -18.710000
0.876000 7.578000 -18.535000
-11.833000 7.871000 -17.627000
1.396000 7.649000 -17.614000
-11.819000 7.928000 -16.831000
4.695000 7.823000 -16.655000
-12.250000 7.716000 -15.780000
5.475000 7.763000 -15.513000
-12.534000 7.779000 -14.722000
6.383000 7.779000 -14.544000
-12.517000 7.646000 -13.677000
6.869000 7.663000 -13.662000
-12.759000 7.675000 -12.875000
7.364000 7.943000 -12.605000
-15.013000 7.789000 -11.863000
6.854000 7.808000 -11.590000
-13.487000 7.646000 -10.647000
5.748000 7.650000 -10.654000
-13.194000 7.741000 -9.601000
5.461000 7.775000 -9.705000
-12.671000 7.514000 -8.601000
5.326000 7.717000 -8.836000
-12.409000 7.739000 -7.777000
3.616000 7.971000 -7.675000
-12.257000 7.574000 -6.792000
-1.234000 7.840000 -6.593000
1.614000 7.679000 -6.727000
2.245000 7.879000 -6.762000
-16.136000 7.870000 -5.615000
-2.149000 7.701000 -5.446000
-19.048000 7.868000 -4.543000
-2.498000 7.711000 -4.510000
-20.541000 7.841000 -3.693000
-2.317000 7.612000 -3.654000
4.815000 7.648000 -3.633000
6.472000 7.690000 -3.779000
7.585000 7.839000 -3.650000
8.396000 7.675000 -3.540000
-21.198000 7.899000 -2.828000
8.811000 7.710000 -2.510000
-21.462000 7.844000 -1.693000
8.867000 7.616000 -1.653000
-22.032000 7.843000 -0.529000
9.501000 7.619000 -0.769000
-22.015000 7.680000 0.162000
12.794000 7.760000 0.209000
-21.431000 7.737000 1.222000
14.570000 7.657000 1.406000
-21.265000 7.615000 2.296000
14.859000 7.815000 2.112000
-22.280000 7.627000 3.494000
-4.119000 7.936000 3.201000
-1.668000 7.850000 3.569000
15.417000 7.578000 3.285000
-22.740000 7.789000 4.255000
-4.057000 7.943000 4.203000
-1.526000 7.809000 4.297000
15.611000 7.741000 4.323000
-23.474000 7.955000 5.130000
15.380000 7.799000 5.265000
-25.049000 7.917000 6.364000
-9.317000 7.666000 6.490000
-8.223000 7.641000 6.296000
14.599000 7.685000 6.275000
-25.182000 7.899000 7.244000
-20.116000 7.753000 7.435000
-18.452000 7.593000 7.318000
-9.941000 7.540000 7.512000
-6.776000 7.492000 7.439000
13.625000 7.948000 7.235000
-24.610000 7.572000 8.177000
-21.270000 7.907000 8.331000
-17.628000 7.622000 8.185000
-14.324000 7.879000 8.353000
-12.111000 7.790000 8.401000
-9.544000 7.640000 8.325000
-6.782000 7.649000 8.135000
11.861000 7.744000 8.417000
-11.693000 7.528000 9.261000
9.663000 7.855000 9.468000
-11.591000 7.707000 10.395000
9.004000 7.718000 10.371000
-11.223000 7.741000 11.323000
9.357000 7.626000 11.193000
-11.134000 7.654000 12.243000
-1.060000 7.991000 12.260000
0.224000 7.845000 12.235000
10.599000 7.651000 12.323000
-11.408000 7.890000 13.153000
12.456000 7.671000 13.345000
-12.388000 7.678000 14.386000
12.535000 7.788000 14.336000
-12.719000 7.633000 15.261000
12.070000 7.913000 15.546000
-13.176000 7.799000 16.270000
11.936000 7.758000 16.223000
-13.113000 7.682000 17.339000
11.808000 7.734000 17.252000
-12.313000 7.637000 18.508000
11.398000 7.834000 18.112000
-12.085000 7.655000 19.419000
7.796000 7.794000 19.521000
-11.705000 7.853000 20.403000
7.495000 7.741000 20.323000
-11.342000 7.772000 21.323000
7.370000 7.701000 21.092000
-11.268000 7.670000 22.324000
6.651000 7.796000 22.263000
-11.133000 7.741000 23.234000
6.451000 7.841000 23.215000
-10.382000 7.795000 24.367000
5.955000 7.624000 24.566000
-9.322000 7.632000 25.175000
5.688000 7.778000 25.526000
-8.621000 7.653000 26.394000
5.549000 7.641000 26.423000
-7.619000 7.651000 27.491000
5.634000 7.741000 27.323000
-7.219000 7.741000 28.436000
5.516000 7.777000 28.259000
-6.652000 7.578000 29.358000
1.527000 7.944000 29.480000
3.564000 7.592000 29.322000
4.823000 7.796000 29.228000
-6.202000 7.670000 30.111000
0.903000 7.649000 30.522000
-4.131000 7.652000 31.242000
0.808000 7.678000 31.304000
-3.731000 7.671000 32.404000
-0.251000 7.833000 32.547000
-3.613000 7.741000 33.323000
-0.677000 7.907000 33.313000
-3.113000 7.727000 34.043000
-1.499000 7.962000 34.257000
-4.197000 31.717000 -16.504000
-2.389000 31.644000 -16.843000
-5.257000 31.689000 -15.730000
-2.515000 31.766000 -15.748000
-6.699000 31.795000 -14.749000
-2.282000 31.807000 -14.697000
-11.289000 31.740000 -13.650000
-9.636000 31.650000 -13.640000
-7.583000 31.770000 -13.768000
-1.556000 31.737000 -13.663000
-12.040000 31.794000 -12.532000
0.703000 31.606000 -12.801000
[...]
POINT_DATA 21770
SCALARS Potential double
LOOKUP_TABLE default
-7.717943
-5.474350
-6.247636
-7.521524
-4.450420
-7.110247
-1.445664
-4.820670
-10.621929
-6.173620
-2.385776
-2.894818
-9.395834
-5.424224
-4.278720
-4.424961
-3.345320
-2.776195
-0.584319
-0.052413
-0.629966
2.594819
-0.693882
4.850768
-1.779792
1.381771
-2.810723
0.589976
-3.108771
0.431346
-4.166911
0.705556
-6.249749
0.942081
-6.045550
1.470936
-5.628917
0.801602
-7.287675
0.820099
-4.681070
1.266687
-1.499006
-1.820469
-0.769893
1.491503
0.844712
-3.118659
-0.206145
-4.925172
0.382912
-6.176734
-0.658172
-4.217110
-4.523805
0.617881
-2.144511
-2.959571
-7.672155
8.060121
-0.688586
-2.430370
-6.644314
2.403998
-0.669873
1.105157
-3.506404
-3.350713
-3.749146
-0.099976
-0.374671
2.978081
-5.558073
-5.198980
-2.471518
0.428699
-9.404940
-1.443759
-10.813067
-4.115824
-8.362064
-5.819896
-4.636684
-8.777070
-0.296403
-11.362414
0.298856
-9.343224
-3.541798
-8.156819
-2.147605
-12.232426
-0.978327
-6.896856
4.196008
-6.835633
9.625777
-9.137098
9.318420
-7.951421
7.697074
-7.189959
8.249427
-8.059563
3.287172
-4.961844
0.067348
4.096633
-0.007186
0.981870
1.479307
-3.020820
2.612851
-4.547885
-5.822335
-6.066009
1.774029
-4.989619
-8.443781
-7.398180
0.296883
-5.700130
-0.181832
-4.988866
0.451906
-10.067354
1.997305
-7.176775
2.860179
-4.697026
3.108801
-4.027069
4.848867
-3.452051
-0.390829
-5.825271
-4.634648
-3.037051
-4.317458
-6.314095
-3.846215
-3.220969
-4.551561
-5.193503
-3.933645
-2.365601
-7.100203
-8.283507
-4.618824
-2.233280
-5.321874
-2.239863
-9.975093
-7.291711
-10.998577
-8.233669
-10.401250
-9.691858
-9.833418
-12.165443
-8.385090
-11.656182
-7.258950
-8.143651
-7.044814
-6.655465
-9.495251
-3.568046
-11.184694
-16.559891
-5.118738
-6.626547
-9.577275
-15.023242
-5.902600
-4.677785
-8.488244
-4.608303
-4.244238
-1.780374
-4.136739
-2.133000
-6.092340
-2.879086
-7.466271
-3.701471
-6.099184
-10.382667
-6.357416
-6.888700
-5.349253
-1.620415
-5.507609
2.037137
-6.451207
9.813141
-7.015803
6.242430
-9.419974
1.574249
-9.368439
-1.148056
-10.002752
-2.358816
-10.289691
4.188116
-12.399915
21.909563
16.156053
11.716868
-9.841219
23.014522
-12.209067
19.314821
-10.730844
16.583522
8.555335
5.940818
4.258839
3.277337
-9.287151
2.673857
-10.279200
2.178497
-13.214596
1.349032
-13.969932
-3.377976
-12.888612
-5.615256
-11.243563
-7.299465
-10.714656
-3.220870
0.691703
-12.498870
-9.475832
-2.061130
0.402199
-14.759199
-10.756986
-14.563330
-18.222090
-6.851206
-5.968527
-13.142392
-16.987894
-9.975846
-8.480618
-7.655320
-6.680528
-11.250063
-16.883088
-13.281155
-7.886811
-3.061478
-8.320938
-8.519435
-5.701429
-5.938642
-10.200068
-0.859195
-8.509493
-0.337734
-4.263622
0.247228
-2.311336
-2.143041
-3.190543
1.645252
-0.855659
-2.386357
0.023404
-2.864330
0.049020
-1.439389
-0.978296
-1.202590
-1.617702
-1.059114
-2.356071
-0.699641
-3.110565
-4.092458
-4.490796
-3.416976
-3.479449
-3.027360
-3.790776
-3.029022
-5.683538
-4.591055
-7.179465
-6.262819
-4.099348
-6.778479
-4.295065
-6.939158
-3.186777
-8.199428
-0.953673
-8.561378
2.548693
-10.529015
-11.398199
-10.199749
-0.795525
-9.894826
-5.959715
-10.604912
-11.128968
-9.547392
-14.300013
-12.377064
-14.102795
-14.618490
-2.474234
-2.355767
-3.319148
0.533147
-6.513045
2.451476
-13.441666
-12.288162
-8.459877
0.683598
-11.350870
-1.565756
-8.964078
-1.710751
-7.771592
-2.867224
-8.023991
-2.102869
-7.372350
-3.714551
-7.098810
-4.825947
-5.902593
-5.817558
-7.585061
-7.418768
-7.966750
-10.965923
-7.803011
-5.639870
-7.523710
-9.451295
-5.370291
-4.437291
-12.898325
-2.690204
-13.846252
1.909828
-9.037034
-3.465697
1.300216
1.541770
4.982583
3.590261
8.251258
4.851252
-1.923482
4.264856
-8.264975
3.135261
0.395837
-0.047415
-6.753171
0.819380
1.217762
-1.138261
-4.780328
-2.368924
-10.054844
-8.471931
0.162302
-3.257075
-7.851870
-6.686539
-6.018114
-5.892049
-6.134491
-5.768766
-6.928239
-4.880455
-5.727739
-6.374140
-7.190727
-1.935855
-6.722125
-9.379156
-3.903411
-1.223537
-0.484090
-4.250914
-4.884986
-9.326708
0.039231
-3.977763
-1.971735
-5.629545
-3.177332
-7.327891
2.345688
-2.493149
-2.865128
-5.125914
-0.842653
-1.222324
-4.673794
-4.851765
-4.117383
-0.173847
-6.045555
-6.263067
-6.736229
2.022897
-3.433407
-5.181680
-7.573543
0.837721
1.126027
1.551205
-2.169338
-5.044387
-2.842311
0.890328
1.223741
1.208245
-1.589473
-4.234502
-3.498434
0.447816
-6.777540
-4.196326
-5.118411
-4.728138
-3.460839
-4.686163
-3.473748
-5.990269
-2.141200
-5.083405
4.703849
-3.535161
-1.502495
-5.218069
-5.104266
-2.666405
-0.640835
-5.460938
-8.132621
-2.190060
-0.627775
-4.555712
-10.544282
-2.515917
-1.053005
-4.718080
-9.458639
-3.643052
-1.939398
-7.779439
-4.218885
-3.223487
-0.959181
1.950114
-2.000967
-11.231003
-9.421185
-8.283707
-7.275089
-9.374767
-7.669806
-7.652295
-9.048334
-0.922260
-7.697010
0.665732
-15.769838
-17.893631
-11.060047
-16.673263
-10.111342
-14.311197
-12.814268
-15.366419
-10.619506
-14.843012
-10.695743
-13.196091
-10.516390
-10.052295
-11.106931
-8.839390
-11.015191
-10.901531
-9.767309
-6.788886
-9.687684
-3.184402
-7.784535
-6.659406
-10.510680
-1.867627
-8.739060
-7.012908
-8.474576
-8.041817
-11.864242
-4.194751
-7.052520
-3.645084
-7.923548
-9.165817
-12.050688
-7.250105
-0.121393
-1.858407
-3.669851
-6.741443
-5.736529
-8.654933
-0.335124
-3.861187
-7.872737
-7.111977
-13.849692
-7.478105
-8.195891
-5.848276
-16.121354
-6.419906
-7.703432
-2.572526
-15.770279
-6.729198
-7.134914
-3.964952
-13.531630
-5.725379
-7.288172
1.395383
-10.399329
-4.813750
-8.053072
-5.949056
-6.225592
-3.490983
-1.306957
-6.905558
-5.813369
-1.686565
-0.749265
-15.158071
-10.078770
-8.555166
-5.159800
22.816759
17.507660
0.577934
-0.011990
-14.945006
-9.154376
18.884499
17.680109
-2.208822
-2.198836
-13.879945
-8.895012
16.696187
15.063345
-2.880783
-3.700810
-9.332536
-6.744449
-1.859598
-3.588070
13.577095
12.157611
-10.053366
-7.834080
-2.747218
-4.433770
16.456190
10.565732
-11.015256
-8.695540
-4.508599
-6.211756
7.382722
8.725534
-11.227702
-11.736667
-5.726757
-9.331227
1.028902
8.187531
-10.653808
-8.692872
-1.379475
9.106935
-9.915960
-3.299538
4.055869
7.149690
-5.936246
4.202612
8.077733
5.273194
-2.772893
4.388111
-3.419731
1.597241
-0.828949
0.043021
-1.668465
-0.515636
-1.936932
1.125309
-0.486602
-2.125744
-3.626916
1.486780
-0.741056
-3.087033
-7.350916
-1.030103
-2.400092
-3.582395
-10.764925
-5.045731
-13.119939
-10.344558
-13.918829
-12.279778
-7.592574
-7.132860
-8.844400
-12.720829
-7.018492
-5.709489
-8.226761
-12.444593
-6.746608
-9.722685
-6.255834
-9.692578
-10.706136
-8.862223
-6.090692
-5.868735
-1.487797
-8.527870
-6.192218
-5.614609
-1.973446
-4.437698
-6.427245
-5.973197
-5.155154
-3.545418
-9.096930
-2.183251
-10.303572
-3.461424
-8.329373
1.437499
-1.738212
-0.216646
-4.595616
-1.065084
-4.223256
-4.493007
-5.713779
-10.296545
-11.005151
-3.513381
-6.180488
-7.459951
-7.751257
-2.688526
-6.087778
-6.530993
-5.418953
-5.083555
-9.593629
-1.872072
-7.300808
-1.254866
-6.676154
2.206204
-6.016070
-1.183705
-0.695379
4.276051
-6.233806
0.441614
0.450526
5.943014
-5.440493
2.046233
1.668355
4.790897
-4.851785
-0.306216
0.819583
0.861985
1.943093
3.471569
-6.314055
-1.971438
1.441144
4.820634
-4.446550
-3.338004
-5.969426
-3.069535
-7.437823
-3.745232
-8.894498
-4.844186
-9.012670
-5.552130
-7.068270
0.520536
-8.200395
2.714742
0.898826
-2.815811
-9.756297
0.657657
1.332339
-7.191520
-9.281361
-0.608280
-4.931963
-1.373048
-1.011183
-10.608662
-3.648402
-3.175513
-4.825562
-0.741650
-4.728277
-1.009299
-2.716515
-0.519968
5.534553
3.921210
-2.176502
0.166020
5.048434
1.971690
-2.080330
-4.074576
-3.368786
-10.221660
-10.404399
-7.272971
-9.667120
-1.335584
-13.075511
0.564028
-16.246145
-14.237954
-13.254971
-3.015083
-16.635828
-12.405027
-11.524880
-4.195175
-13.923493
-7.799277
-7.893850
-7.219061
-7.995139
-16.131139
-13.571798
-6.564193
-13.368998
-16.738331
-12.736963
-0.179311
-9.810396
-14.012116
-12.302415
-0.370151
6.437073
1.579073
-11.724837
-10.448547
-14.053660
-0.339544
8.595303
2.847732
-15.447495
-1.769351
-13.434859
-17.232364
-15.443871
-4.578625
-12.258562
-11.115751
-12.415326
-4.667589
-10.892733
-11.562240
-5.343733
-9.485975
-6.586342
-4.087058
-8.392723
-10.536491
-5.891229
-12.905714
1.351045
1.636742
3.716331
6.834574
8.966952
9.227222
-2.990515
-0.071058
-4.072814
-19.465542
1.181150
4.174050
-1.733544
0.439379
-4.270306
-19.634696
-0.682232
3.816642
0.250753
0.670172
-3.910167
-15.425838
-1.657043
5.287863
4.559351
4.283273
1.201524
1.183063
-4.098617
-11.474156
4.717146
5.596018
-4.864973
-8.381785
6.813483
6.101751
-6.305954
-5.144547
-4.855197
-5.014393
4.246521
4.981370
-6.738985
-0.473268
2.251142
7.735795
-9.041374
-5.025867
10.039230
12.361120
5.447794
0.175777
-11.098952
-6.720400
16.057809
13.611751
6.103829
-7.356185
-11.111330
-5.362109
5.448569
-8.062881
5.817627
-9.946257
8.041345
-12.061509
5.364879
-14.688211
2.713093
-8.525515
1.863277
-12.713110
0.788438
-16.374213
-0.214565
-16.856702
-0.799214
-13.743952
-9.951619
-9.234156
-11.193045
-6.671047
-1.653679
-13.661160
-12.952432
-4.556623
-4.167927
-17.254775
-17.750733
-11.141788
-12.404906
-16.904308
-16.293505
-10.518816
-10.996408
-7.618514
-12.771910
0.248745
-11.724777
-15.482111
-9.888900
-2.254433
-9.172849
-17.843625
-9.558193
-9.917512
-8.844992
-2.982308
-12.132739
-2.843229
2.623360
-2.549540
2.446560
-5.688458
3.061725
-15.060954
2.536798
-14.742905
1.078145
-15.599750
-1.490437
-2.038863
-1.392597
-9.856064
-3.140777
-3.783312
-1.506244
-8.897642
-2.130112
-0.551426
-0.548785
-2.632889
-1.174330
-8.681716
-0.704399
-0.510116
-0.464858
-1.679878
-0.547493
-10.189451
-0.740161
-0.594791
-0.591164
-0.081316
-0.005330
-0.406038
0.787943
-8.282043
-8.375432
-10.047107
-0.061836
-4.008069
-10.108002
-8.509440
0.830027
-3.539006
-10.312277
-7.601610
1.586137
-0.256270
-9.221535
-8.529444
2.130405
-2.208014
-8.865001
-8.855260
2.161858
-8.699845
-10.255679
-11.667689
-12.596668
-13.522781
-15.403976
-16.493721
-16.139054
-6.846378
-0.436732
-4.115656
-1.988719
-5.411094
-5.621992
-9.316650
-4.544820
-9.064317
-3.823979
-4.333205
0.254282
-2.336463
-2.892995
-3.258623
0.398976
-1.504798
-1.117504
-2.327134
0.311929
1.565576
1.021902
0.920344
3.527058
0.286232
6.580728
-0.658112
1.276399
-1.637750
-0.018847
-2.496152
-1.356069
-3.850031
0.199106
-5.168946
1.901914
-5.129249
2.276908
-5.923096
3.413357
-6.602294
2.588469
-4.424028
3.291581
-0.235917
4.493753
0.416072
-5.087802
5.252681
1.541580
0.321161
-5.157596
0.073476
-4.916962
-0.073810
-4.369723
-4.393941
-2.846722
-1.625454
-3.541196
-6.237759
3.611347
0.340082
0.110482
-3.116058
-3.313760
-4.060662
0.112422
-6.395707
-3.424846
-4.367262
3.761463
-2.921785
1.256675
-6.933822
-1.930900
-7.537012
-3.781563
-6.075405
-5.752029
-5.857555
-7.321369
-8.202521
-9.692544
-8.882260
-9.141906
-6.877051
-7.653357
-2.700949
-7.505393
-2.112942
-7.050495
1.672020
-7.854026
5.827463
-8.607919
8.639013
-7.432086
11.606488
-7.285008
10.044300
-9.756653
8.087035
-8.581895
1.192069
-6.778664
1.288188
-3.535610
4.904610
-4.454441
7.031435
-4.450425
3.555938
-6.613731
1.695839
-7.132686
-0.090787
-6.525748
-0.421415
-9.236803
1.135997
-6.504739
2.116567
-3.979270
3.146995
1.438798
-1.546519
-3.574371
5.454365
3.997425
-1.817885
-2.835204
-5.057762
-2.763445
-7.755558
-8.635282
-4.825328
-4.754848
-8.772230
-7.956640
-4.713096
-5.894144
-9.652371
-10.110888
-5.510297
-2.760665
-11.084645
-9.098585
-16.052374
-8.241699
-15.296364
-9.340367
-14.305616
-11.536303
-13.470988
-10.974635
-10.581800
-8.285697
-6.685623
-8.264648
-8.199046
-8.956505
-9.653921
-16.365611
-5.917739
-8.096473
-10.315604
-15.848586
-5.239516
-6.410425
-9.520515
-6.450950
-5.138175
-5.663832
-2.234357
-7.986895
-4.572682
-9.913111
-6.104397
-9.829516
-8.174902
-10.549641
-7.155334
-2.627063
-5.905092
0.259417
-4.029950
2.491654
-3.659656
4.722190
-3.226224
6.252468
-2.794175
4.653359
-4.888143
-6.564829
-7.737578
1.399568
-8.587674
0.794962
-8.345591
4.894695
-8.658337
20.026622
-7.236083
23.289011
-9.026897
19.976665
-8.782629
17.569767
8.742408
7.281698
-8.376702
1.774648
-8.703524
0.603235
-11.859135
-5.281324
-13.006268
-4.139707
-10.123513
-5.386072
-9.741043
-1.843469
1.177704
-7.984692
-9.730820
-1.875851
1.269860
-12.511036
-11.106719
-1.115643
0.958207
-13.458616
-10.857316
-0.641234
0.269667
-11.926352
-17.055308
-8.106656
-17.129324
-6.988029
-17.252076
-11.977463
-9.502349
-4.465967
-7.051867
-0.447270
-6.878286
0.097314
-4.564288
-1.892217
-2.492272
0.469934
-1.651242
-2.639808
-2.589560
2.274071
0.632864
-2.941664
-4.230100
1.932735
-4.442288
-0.242211
-3.163235
-0.524916
-2.753995
-0.016566
-3.401983
0.467442
-3.642314
1.491326
-4.619739
-4.458656
-4.217633
-3.359917
-3.009464
-3.141608
-4.311152
-3.429488
-6.962943
-6.141092
-7.394146
-10.684677
-4.488651
-11.781359
-1.394306
-9.507036
-2.745449
-8.498417
-1.657740
-9.134829
-1.193500
-10.724243
-2.249746
-10.304962
-4.508551
-11.267541
-7.497582
-8.500241
-12.738680
-10.127798
-14.386611
-14.492201
-8.998447
2.283850
-8.973135
0.368177
-11.880412
-1.137014
-10.266532
-3.252669
-6.052854
-5.329879
-6.137647
-4.386642
-8.185534
-5.589631
-8.953045
-6.059367
-6.976677
-7.324825
-6.519411
-6.301590
-8.190148
-6.007734
-8.960201
-6.209056
-8.105698
-7.530875
-7.828220
-7.090028
-4.777065
-6.132576
1.953210
2.559302
0.483820
0.244081
-9.575888
-8.292908
4.923972
2.389005
-6.409672
-4.452797
6.947813
6.913973
-3.195803
-2.608946
0.084088
3.349737
10.847378
5.155789
-6.432250
-2.278174
0.248478
2.753075
-11.078470
-1.834572
-0.994072
-1.361426
-6.247982
-0.878310
-10.252908
-1.019693
-1.675546
-3.856860
-8.424436
2.376121
-2.795593
-5.448085
-4.532729
1.526884
-6.874495
-9.549216
-4.894983
-0.681050
-4.962007
-9.004112
-7.610366
-0.213760
-5.491279
-9.056501
-7.595578
-0.273682
-5.407478
-10.595561
-5.326741
-0.869223
1.381964
0.453049
0.117176
-9.310465
-1.798390
-6.226698
0.095882
-5.530549
-3.145236
-5.932968
-1.172322
-3.820506
-3.992084
-3.523621
-3.185896
-7.675420
-3.375511
0.444588
-4.505913
-9.009167
-3.659306
5.823811
-3.763281
-7.348271
-4.099688
-0.424574
3.728464
2.924145
-3.465700
-5.660435
-2.900642
-0.400426
3.270430
2.655515
-3.311273
-5.445051
-2.679702
2.820205
-6.683801
-5.474169
-5.643521
-4.859946
-4.311952
-4.678720
-3.564222
-4.689021
-1.162505
-6.821636
2.841882
-5.169849
2.716073
-2.963094
1.522953
-6.851807
-7.813407
-2.514096
-1.104691
-5.026034
-8.989412
-3.924972
-0.950918
-3.707700
-8.129504
-5.798170
-0.350634
-3.149469
-3.243323
-2.304297
1.956417
3.895232
-0.437667
-9.635470
-7.139362
-4.772877
-7.813476
-5.215257
-10.156077
-2.025477
-10.809681
-4.852115
-16.687802
-16.773317
-12.408933
-16.727068
-10.081215
-13.686861
-10.670107
-12.798136
-8.688546
-10.446802
-9.679491
-12.625267
-8.363840
-12.301298
-8.740173
-14.356579
-7.927380
-11.664877
-3.059851
-5.565957
-7.782738
-7.543553
-4.069120
-6.469419
-7.562223
-4.199515
-4.988811
-6.345234
-9.562969
1.155794
-8.816802
-7.745720
-6.273255
-7.016149
-8.983544
-2.905194
-2.039777
-4.344924
-7.342958
-3.084602
-6.080641
-5.736801
2.317315
-3.538477
-7.078397
-2.813552
-7.126068
-6.053562
-0.568101
-2.870683
-9.417694
-6.838165
-11.524885
-1.187343
-14.929279
-2.755029
-15.604032
-1.952925
-13.677772
-5.796297
-12.561202
-6.088507
-8.702801
-9.349898
-6.447343
-1.570005
-0.217094
-12.612959
-15.506982
-14.499159
-6.374311
-0.601399
-0.062515
-15.066510
-13.062594
-12.351737
-9.290983
0.121453
0.071721
-13.993104
-11.009135
19.425407
14.954522
0.875918
0.558491
-1.927677
-3.882762
-12.376216
-10.380349
14.801701
12.291567
-2.015208
-4.211499
-8.315683
-10.209820
13.267557
9.502239
-2.616336
-3.673642
-9.471827
-9.185653
-5.390659
-6.443875
9.943069
7.988175
-11.541575
-8.361497
-6.222471
-9.968358
6.266393
7.844182
-6.937248
-12.944496
-7.577303
-8.873372
2.830454
7.459075
-5.206833
-10.156699
2.102704
6.684809
-5.784616
-5.146475
6.301656
5.923603
-10.033494
-1.337380
6.277235
4.436424
-3.376407
-9.215270
-12.709840
3.842053
-4.458507
2.202740
-1.958784
-1.592226
-0.580466
1.080002
2.196226
-4.064057
-1.402677
4.146958
0.747763
-4.961765
-3.425129
4.951721
-0.529548
-3.658095
-7.160811
-4.436162
-10.671261
-10.892572
-12.599288
-8.084971
-8.320876
-12.123836
-7.047420
-6.460167
-7.501830
-10.597677
-7.157921
-9.931702
-8.024629
-6.402193
-7.104684
-9.311096
-6.967918
-6.543493
-6.593213
-8.404531
-3.517029
-3.475564
-7.357947
-0.862264
-5.749362
1.721186
-3.898131
-6.351375
-6.084632
2.114370
-4.809234
-1.155120
-3.983062
-6.677035
-9.389015
-3.864259
-5.852134
-7.460822
-12.969109
-3.084172
-6.575751
-2.839210
-11.140138
-4.918897
-4.929989
-4.262995
-8.773742
-3.017075
-7.739305
2.307133
-7.027926
1.863273
1.580669
5.362495
-6.189879
3.029288
2.116467
7.241737
-4.092108
3.855199
2.500783
2.587444
-5.088673
-0.445759
-3.593009
-0.377217
-5.375636
-1.225168
-8.251665
-0.340015
-8.539347
-1.055904
-8.109430
-3.243494
-8.431835
-3.172036
-7.543528
3.671964
-7.407681
2.140160
2.520517
-3.376071
-9.300850
-0.916274
7.149632
-6.616638
-6.882929
-2.075447
-4.439461
-9.341887
-3.652196
-0.557137
-4.395586
-0.769500
-2.209109
0.827645
-2.564387
2.634912
-3.234376
-4.052041
-3.551273
-11.044634
-12.025625
-10.120521
-10.599542
-7.774715
-10.762388
-4.996165
-13.483683
-3.520052
-14.210106
-3.178909
-14.347121
-4.144562
-17.064725
-5.909767
-14.332466
-5.387941
-12.470911
-6.601649
-12.221312
-15.714766
-16.990663
-1.977373
-4.190954
-14.808084
-11.077718
-3.121756
-15.730010
-2.074813
2.367080
0.834590
-6.354736
-10.896510
-15.555961
-2.489090
-8.013937
-6.595225
-13.841744
-1.777588
-13.465731
-1.926314
-12.808022
-16.368809
-19.489904
-4.041228
-11.869428
-11.615219
-15.590997
-4.544137
-11.928681
-9.086585
-12.023014
-7.235486
-5.785058
-4.041819
-10.017916
-4.945207
-4.187192
-4.847372
-2.412442
-4.901292
-1.794188
0.018086
-0.286408
-12.585512
8.565633
10.069271
5.438876
3.902987
-0.874285
0.488847
-1.761925
-17.872981
3.035687
2.520526
0.325889
0.757748
-3.201143
-15.725288
1.881357
0.271917
0.680395
0.966845
-3.818692
-11.344801
-4.222799
-7.857143
3.931350
0.779273
-4.969715
-5.635288
4.963828
3.007781
-5.836165
-4.401600
-8.965875
-8.457709
1.859225
0.373018
-11.074871
-8.986511
1.712950
-4.290335
-11.212500
-8.057236
4.765839
-7.541740
3.864469
-11.300354
3.661646
-10.782382
1.210477
-12.435312
-1.207013
-11.196473
-0.202644
-10.956371
-0.071716
-13.487028
-0.257490
-12.436739
-1.003789
-8.360629
-11.294524
-6.763278
-2.150825
-10.141375
-12.945300
-10.630848
-11.661959
-9.112635
-11.128304
-7.181503
-10.215486
-4.718888
-13.689283
-14.644263
-9.345763
-0.468836
-9.073570
-14.163873
-10.559172
-10.835585
-10.514095
1.710593
-9.863668
-1.687979
0.726445
-12.158793
0.479259
-14.403212
0.036943
-14.975664
-0.586195
-14.644206
-2.708058
-9.685866
-5.623512
-8.290072
-6.154518
-1.990632
-1.523551
-8.930462
-2.589787
-1.120528
-1.011471
-9.780369
-3.642218
-8.963310
-5.852192
-6.230141
-7.799189
-7.938647
-9.466188
-1.288387
-0.026794
-2.321587
-10.166400
-7.093996
-7.873587
-1.660457
0.467266
4.573774
-9.426859
-6.749221
-4.690530
-3.509761
0.724922
2.654816
-8.771704
-9.658135
-5.082853
-1.312082
1.437942
-5.921398
-8.789458
-10.736260
-9.826576
-9.962259
-10.591906
-11.575980
-15.662876
-3.769176
-0.542846
-4.589350
-3.571421
-6.343360
-4.229726
-5.272820
-3.485574
-3.712046
-3.831097
-2.419622
-2.329825
-1.859566
-0.741858
-1.684538
0.672352
-1.772512
-0.090309
0.809851
1.512196
-1.794365
-1.257150
0.143853
0.921113
0.031925
-0.696162
0.442867
-2.462031
1.318949
-2.350914
-3.518932
-2.353888
1.628444
0.363531
-3.092299
2.873856
-3.909146
3.869129
-3.916301
5.511340
-3.575207
4.971439
-0.982518
6.224780
0.815394
8.955827
1.733314
-0.001314
1.893924
-3.807782
1.492361
-3.666094
0.437581
-3.885482
-0.693221
1.462840
-1.542861
-4.790264
-3.786238
0.264291
2.950640
6.211617
-2.936971
-3.761717
-2.591382
-0.714227
-1.256200
-2.067939
-4.244327
-1.456044
-7.463519
-3.463167
-5.966148
-4.803760
-4.905126
-6.467269
-6.854854
-9.206635
-10.485809
-11.084667
-10.036986
-9.780816
-8.153992
-7.051802
-2.574517