# vtk DataFile Version 1.0
vtk file 8iai_4:J:B_model1
ASCII
DATASET POLYDATA

POINTS 22530 double
-7.957000 -14.674000 -28.061000
-4.271000 -14.896000 -28.080000
-8.370000 -14.739000 -27.371000
-4.034000 -14.898000 -27.140000
-11.257000 -14.760000 -26.268000
-4.159000 -14.798000 -26.240000
-12.137000 -14.774000 -25.286000
-4.135000 -14.698000 -25.340000
-16.953000 -14.588000 -24.202000
-15.028000 -14.965000 -24.233000
-13.030000 -14.723000 -24.216000
-4.190000 -14.804000 -24.311000
-18.167000 -14.869000 -23.265000
-4.228000 -14.812000 -23.115000
-18.386000 -14.641000 -22.297000
-7.947000 -14.812000 -22.131000
-6.341000 -14.862000 -22.313000
-3.847000 -14.981000 -22.288000
-18.231000 -14.992000 -21.177000
-1.457000 -14.899000 -21.035000
-17.918000 -14.798000 -20.240000
-1.003000 -14.881000 -20.206000
-18.078000 -14.727000 -19.220000
1.582000 -14.733000 -19.046000
-18.658000 -14.719000 -18.134000
1.832000 -14.688000 -18.168000
-19.116000 -14.624000 -17.190000
1.867000 -14.838000 -17.200000
3.003000 -14.915000 -17.148000
5.743000 -14.928000 -17.059000
-19.784000 -14.678000 -16.095000
6.161000 -14.798000 -16.240000
-20.219000 -14.977000 -15.191000
6.115000 -14.654000 -15.169000
-20.081000 -14.798000 -14.240000
5.216000 -14.877000 -14.198000
-19.746000 -14.832000 -13.205000
3.837000 -14.653000 -13.027000
-19.407000 -14.819000 -12.091000
3.671000 -14.898000 -12.110000
-19.105000 -14.826000 -11.311000
3.842000 -14.798000 -11.240000
-18.434000 -14.798000 -10.247000
3.810000 -14.698000 -10.340000
-18.242000 -14.832000 -9.393000
3.700000 -14.779000 -9.240000
-18.652000 -14.603000 -8.327000
3.906000 -14.917000 -8.238000
-18.943000 -14.794000 -7.311000
6.768000 -14.891000 -7.039000
-19.152000 -14.698000 -6.340000
7.240000 -14.807000 -6.346000
-18.853000 -14.855000 -5.437000
7.881000 -14.894000 -5.284000
-18.258000 -14.898000 -4.234000
-4.086000 -14.577000 -4.094000
-1.900000 -14.882000 -4.192000
8.928000 -14.949000 -4.049000
-18.598000 -14.611000 -3.154000
-4.651000 -14.878000 -3.028000
-1.702000 -14.708000 -3.406000
9.032000 -14.885000 -3.073000
-18.801000 -14.700000 -2.406000
-4.775000 -14.916000 -2.073000
-1.861000 -14.663000 -2.406000
8.856000 -14.786000 -2.208000
-18.847000 -14.745000 -1.406000
-4.780000 -14.983000 -1.108000
-2.104000 -14.684000 -1.440000
1.191000 -14.799000 -0.993000
2.738000 -15.041000 -1.216000
7.902000 -14.728000 -1.267000
-19.222000 -14.781000 -0.425000
-3.966000 -14.918000 -0.168000
-2.052000 -14.822000 -0.470000
0.718000 -14.678000 -0.228000
4.057000 -14.915000 -0.244000
6.993000 -14.622000 -0.123000
-21.187000 -14.566000 0.606000
-3.090000 -14.925000 0.917000
4.986000 -14.889000 0.566000
6.055000 -14.664000 0.750000
-22.893000 -14.742000 1.999000
-2.931000 -14.935000 1.899000
-23.218000 -14.833000 2.804000
-2.191000 -14.919000 3.011000
-23.532000 -14.827000 3.693000
-1.919000 -14.782000 3.966000
-23.388000 -14.797000 4.646000
-2.363000 -14.698000 4.682000
-23.333000 -14.687000 5.915000
-3.103000 -14.714000 5.684000
-23.726000 -14.687000 6.944000
-4.688000 -14.698000 6.795000
-24.329000 -14.717000 7.763000
-5.103000 -14.707000 7.759000
-24.601000 -15.036000 8.642000
-5.643000 -14.855000 8.939000
-24.087000 -14.869000 9.690000
-4.849000 -14.920000 9.792000
-23.066000 -15.016000 10.768000
-1.982000 -14.983000 10.929000
-22.037000 -14.869000 11.733000
-1.772000 -14.989000 11.856000
-21.748000 -14.847000 12.710000
-0.930000 -14.825000 12.850000
-20.177000 -14.815000 13.858000
-0.898000 -14.774000 13.826000
-19.268000 -14.965000 14.910000
-3.063000 -14.994000 14.786000
-18.752000 -14.643000 15.805000
-3.663000 -14.884000 15.971000
-19.108000 -14.733000 16.791000
-3.710000 -14.951000 16.927000
-19.791000 -14.952000 17.863000
-3.733000 -14.952000 17.927000
-19.717000 -14.962000 18.794000
-3.622000 -15.024000 18.864000
-19.291000 -14.798000 19.705000
-3.245000 -14.761000 19.781000
-18.743000 -14.739000 20.594000
-3.195000 -14.723000 20.760000
-15.321000 -14.931000 21.914000
-2.931000 -14.715000 21.745000
-14.829000 -14.798000 22.824000
-1.175000 -14.779000 23.003000
-14.012000 -14.730000 23.851000
-13.202000 -14.704000 23.844000
-11.898000 -14.901000 23.744000
-0.826000 -14.939000 23.730000
-11.294000 -14.965000 24.626000
0.636000 -14.881000 24.979000
-11.228000 -14.877000 25.638000
0.860000 -14.798000 25.760000
-10.961000 -14.846000 26.604000
0.759000 -14.705000 26.730000
-8.868000 -14.965000 27.708000
-3.912000 -14.869000 27.796000
-0.921000 -14.876000 27.689000
0.012000 -14.681000 27.796000
-6.021000 -15.004000 28.727000
-4.296000 -14.803000 28.688000
17.819000 9.351000 -23.236000
21.121000 9.061000 -23.247000
16.809000 9.273000 -22.371000
21.904000 9.162000 -22.124000
11.898000 9.302000 -21.269000
22.488000 8.981000 -21.051000
11.618000 9.342000 -20.299000
22.534000 9.144000 -20.403000
0.886000 9.189000 -19.242000
2.934000 9.125000 -19.254000
3.880000 9.311000 -19.156000
4.930000 9.123000 -19.085000
11.177000 9.157000 -19.133000
21.967000 9.173000 -19.163000
-0.018000 9.229000 -18.047000
5.806000 9.016000 -18.114000
10.986000 9.202000 -18.240000
21.692000 9.168000 -18.340000
0.049000 9.137000 -17.073000
6.689000 9.190000 -17.143000
10.681000 9.271000 -17.468000
22.092000 9.105000 -17.514000
0.198000 9.023000 -16.299000
22.846000 8.997000 -16.316000
-6.875000 9.275000 -15.169000
-6.205000 9.242000 -14.986000
0.712000 9.131000 -15.239000
21.957000 9.220000 -15.323000
-8.072000 9.369000 -14.165000
-5.206000 9.171000 -14.093000
0.929000 9.302000 -14.340000
21.191000 9.354000 -14.374000
-8.730000 9.302000 -13.164000
-4.366000 9.274000 -13.094000
1.334000 9.139000 -13.316000
21.104000 9.220000 -13.311000
29.863000 9.203000 -13.240000
31.758000 8.959000 -13.214000
-9.125000 9.224000 -12.311000
-1.252000 8.974000 -12.166000
1.127000 9.365000 -12.192000
20.787000 9.263000 -12.275000
28.241000 9.232000 -11.997000
33.119000 9.042000 -12.135000
-8.876000 9.151000 -11.149000
20.338000 9.469000 -11.287000
27.704000 9.302000 -11.201000
33.529000 9.379000 -11.219000
-8.611000 9.030000 -10.280000
20.818000 8.999000 -10.364000
27.143000 9.369000 -10.222000
33.005000 9.397000 -10.246000
-8.148000 9.070000 -9.231000
22.253000 9.035000 -9.324000
25.871000 9.418000 -9.285000
31.864000 9.417000 -9.278000
-7.370000 9.334000 -8.185000
30.283000 9.259000 -8.104000
-7.310000 9.441000 -7.208000
29.852000 9.202000 -7.240000
-7.917000 9.221000 -6.036000
29.595000 9.318000 -6.401000
-8.210000 9.286000 -5.073000
-0.096000 9.296000 -5.234000
0.794000 9.096000 -5.220000
28.890000 9.283000 -5.284000
-8.377000 9.264000 -4.221000
-1.000000 9.202000 -4.202000
4.064000 9.113000 -4.256000
26.760000 9.378000 -4.190000
-8.658000 9.053000 -3.201000
-0.906000 9.177000 -3.193000
7.165000 9.008000 -3.140000
26.388000 9.048000 -3.164000
-8.002000 9.169000 -2.056000
-0.453000 9.356000 -2.023000
7.626000 9.330000 -2.189000
26.727000 9.100000 -2.142000
-7.934000 9.169000 -1.263000
-0.632000 9.063000 -1.101000
7.107000 9.378000 -1.217000
27.745000 9.299000 -1.181000
-8.867000 9.216000 -0.005000
-0.614000 9.088000 -0.278000
5.876000 9.429000 -0.127000
28.594000 9.287000 -0.355000
-9.304000 9.383000 0.766000
0.151000 9.203000 0.622000
5.111000 9.308000 0.777000
24.345000 9.363000 0.827000
-10.917000 9.245000 1.848000
24.296000 9.275000 1.565000
-11.163000 9.086000 2.760000
24.759000 9.007000 2.736000
-10.801000 9.152000 3.619000
25.154000 9.414000 3.781000
-9.987000 9.181000 4.926000
25.231000 9.021000 4.738000
-9.988000 9.102000 5.860000
24.778000 9.185000 5.725000
-9.888000 9.202000 6.682000
23.738000 9.269000 6.615000
-8.895000 9.094000 7.723000
22.195000 9.378000 7.631000
-4.139000 9.167000 8.848000
21.972000 9.387000 8.631000
-3.821000 9.184000 9.832000
21.393000 9.450000 9.803000
-3.621000 9.227000 10.966000
21.675000 9.069000 10.715000
-3.595000 9.102000 11.860000
20.986000 9.271000 11.712000
-3.961000 9.266000 12.757000
19.702000 9.244000 12.736000
-4.360000 9.197000 13.568000
19.340000 9.321000 13.676000
-5.017000 9.176000 14.633000
12.070000 9.256000 14.732000
13.701000 9.231000 14.867000
18.847000 9.266000 14.553000
-6.001000 9.222000 15.719000
12.233000 9.242000 15.513000
-4.894000 9.151000 16.966000
12.951000 9.188000 16.663000
-4.851000 9.170000 17.965000
12.999000 9.160000 17.594000
-4.970000 9.102000 18.860000
13.015000 9.118000 18.569000
-4.779000 9.302000 19.660000
13.824000 9.141000 19.673000
-4.685000 9.133000 20.652000
13.610000 9.223000 20.624000
-5.032000 9.409000 21.745000
13.019000 9.116000 21.712000
-4.651000 9.196000 22.687000
12.248000 9.170000 22.889000
-4.487000 9.044000 23.614000
12.111000 9.102000 23.860000
-4.911000 9.164000 24.657000
11.892000 9.369000 24.661000
-5.377000 9.369000 25.623000
10.975000 9.296000 25.828000
-6.918000 9.273000 26.833000
10.882000 9.351000 26.760000
-8.651000 9.390000 27.790000
-2.121000 9.410000 27.723000
0.796000 9.273000 27.937000
11.520000 9.274000 27.960000
-8.754000 9.333000 28.558000
-3.831000 9.240000 28.910000
1.866000 9.211000 28.876000
11.631000 9.445000 28.800000
-8.028000 9.260000 29.626000
-4.218000 9.158000 29.576000
2.895000 9.139000 29.890000
11.117000 9.201000 29.969000
2.909000 9.375000 30.731000
11.042000 9.202000 30.760000
2.356000 9.131000 31.807000
10.875000 9.303000 31.566000
2.116000 9.202000 32.760000
9.012000 9.273000 32.744000
2.233000 9.194000 33.663000
8.063000 9.262000 33.759000
2.981000 9.207000 34.674000
6.996000 9.249000 34.720000
-24.568000 -14.885000 7.979000
-24.446000 -14.783000 8.993000
-23.409000 -14.836000 3.313000
-23.514000 -14.827000 3.895000
-23.541000 -15.021000 6.477000
-23.415000 -14.628000 10.441000
-22.543000 -14.868000 1.465000
-22.510000 -14.759000 11.015000
-21.687000 -14.939000 1.069000
-21.378000 -14.680000 13.163000
-20.576000 -14.867000 0.169000
-20.601000 -14.729000 13.607000
-19.493000 -15.012000 -16.600000
-19.566000 -14.588000 -12.673000
-19.667000 -14.970000 -0.068000
-19.604000 -14.727000 14.402000
-19.520000 -14.907000 17.178000
-19.509000 -14.762000 19.203000
-18.467000 -14.804000 -18.435000
-18.631000 -14.849000 -10.574000
[...]
POINT_DATA 22530
SCALARS Potential double
LOOKUP_TABLE default
-1.764767
-3.962892
-1.156270
-3.987405
-3.562935
-3.282480
-1.997651
-3.496584
-1.383832
0.006006
0.160162
-2.809851
-2.820998
-3.740790
-3.738501
1.263156
-2.144263
-2.941068
-5.386580
-3.550730
-6.749717
-3.441676
-9.611952
-6.445183
-14.409809
-5.140755
-13.503616
-3.168794
0.144228
-0.927945
-14.085079
-3.529112
-14.169827
-1.457108
-12.963374
5.794518
-10.910584
2.332896
-12.404253
0.662697
-15.130068
-0.834858
-15.271899
-1.576978
-16.597042
-1.299745
-18.714897
-1.032711
-19.489978
-5.685798
-20.144335
-5.992110
-17.501600
-6.109860
-11.123700
5.557685
4.674182
-7.335785
-8.150545
7.106552
5.493016
-5.923009
-10.869905
7.432889
5.895748
-5.973878
-11.181454
5.882332
5.834069
5.215598
2.961809
-4.747412
-12.977856
2.546888
7.166152
5.582614
-0.893331
-6.256739
-13.687154
2.369630
-4.738521
-6.576620
-13.349303
2.046040
-11.630151
0.027580
-20.491304
-1.672013
-12.682253
-0.977075
-9.829091
0.154733
-7.880280
-1.340551
-7.506902
-2.298195
-7.693432
1.719834
-6.584315
1.913746
-6.483697
-1.841784
-4.781603
-1.375137
-5.522933
-0.338833
-5.961142
0.115510
-12.015352
0.205812
-14.629216
0.215266
-13.057384
-0.282789
-6.688756
-0.945063
-3.149829
-2.135387
-4.476574
-2.424059
-6.715183
-1.793605
-4.740337
-3.436781
-6.995130
-8.674979
-6.217355
-4.308006
-2.712523
-9.004016
-4.519265
-14.591623
-8.033910
-15.082874
-9.548476
-15.749349
-3.637262
-11.229150
-16.765105
-16.166332
-6.581268
-12.150366
-4.196424
-9.640510
-4.204882
-10.759072
-7.260585
-14.136743
-6.685142
-16.111427
-6.911489
-7.993791
-7.571155
-8.018878
-9.053541
-15.364793
-7.441107
-6.765314
-8.388012
-12.719032
-9.634236
-3.268032
-7.418449
-13.723998
-13.447292
-13.901530
-6.684532
-5.320710
-15.806924
-13.143480
-5.185538
-6.034761
-18.816845
-11.860126
-4.514725
-6.296746
-14.701644
-13.855301
-6.092171
-6.314681
-4.494329
-15.256868
-12.017185
-16.232768
-11.622985
-16.162787
-3.405257
-15.940579
-14.187120
-19.328363
-3.148988
-14.625813
-12.916219
-18.302018
-2.937215
-13.471384
-14.098302
-13.631238
-2.908256
-13.708645
-2.952375
-14.477336
-3.563957
-16.839571
-4.518860
-10.529590
-9.977761
-17.484065
-5.892830
-10.487871
-14.161585
-17.127870
-9.073843
-12.158526
-7.826036
-16.000596
-6.589867
-13.041430
-5.061269
-18.389066
-6.939131
-10.864036
-4.039900
-24.107767
-10.217279
-7.754934
-10.915192
-25.589161
-9.327447
-8.122809
-9.531957
-13.503850
-12.073778
-14.819676
-12.056822
-12.431207
-12.245496
-7.196563
-14.359276
-10.263793
-17.820119
-11.168487
-18.164465
-11.816091
-16.874482
-9.104205
-5.269086
-10.238582
-2.270134
-9.396617
4.520644
-12.785203
5.556164
-14.504354
3.753482
-13.998695
2.056948
-14.372006
1.107235
-8.225847
-5.163571
-14.178749
4.288323
-12.051873
2.271938
-14.439703
4.131960
-15.329098
6.400564
-11.605268
7.026471
-7.198514
8.128739
-0.900770
6.647638
-0.813316
5.428818
-1.569020
5.481223
-2.714469
5.705370
-1.305340
4.876308
3.289792
0.106469
1.350986
-6.185488
10.108515
6.779555
-2.280049
-6.853912
10.348260
6.894977
-3.123855
-6.093776
5.679132
5.742605
-0.821502
5.586003
0.175806
4.075605
0.182705
1.985360
-0.366060
0.086730
-0.482463
-1.235339
-1.533621
-9.677865
-7.478346
-13.650581
-20.780964
-9.202868
-6.069745
-17.427014
-5.200339
-13.915169
-4.660929
-13.896519
-4.118101
-13.853105
-10.764030
-12.644282
-10.849867
-11.925867
-4.363795
-13.346325
-17.230482
-18.996423
-14.837499
-7.622660
-9.251171
-1.928053
-6.866128
-1.038594
-5.757507
-0.388035
-3.993451
0.224695
-7.336161
0.344218
-5.054173
-0.765233
-3.920021
-2.883908
-3.198618
-3.064545
-8.623787
-2.054543
-5.409633
-1.201519
-2.279383
-1.475545
1.337823
-0.133067
-3.248267
-1.237064
-0.606846
-1.602643
-5.138608
-1.255504
0.422392
2.625332
-8.092401
-3.373642
6.328751
3.773919
-0.579857
0.805619
-10.782536
-2.504840
5.295994
2.366265
0.265329
-1.020153
0.260450
-2.023546
-10.696839
-3.086060
4.818676
1.162329
-0.333532
-1.622563
0.219555
-4.548465
-12.552407
-3.646059
6.191907
-0.843396
0.262076
-6.705645
-15.223349
-5.058720
6.191074
-10.393353
-16.247519
-6.580671
5.577708
-13.874093
-15.919206
-6.491699
5.227479
-1.020516
3.310496
2.640357
1.321069
7.090109
4.583624
-1.219128
-2.855253
0.931617
7.128175
-2.550577
-5.804408
-4.778703
-6.234022
-5.243452
-4.795070
-6.510832
-5.248769
-12.628416
-14.249825
-9.252448
-16.450404
-5.110582
-3.442790
-7.879424
-7.357341
-9.285893
-14.869865
-4.729850
-7.033483
-5.461307
-2.421983
-2.691914
-12.322762
-2.203108
-4.538633
-9.238057
-12.741459
1.815914
-1.478148
-6.189429
-10.098256
1.690316
2.616747
4.076556
0.512255
-5.613368
-6.891747
0.932857
4.942445
5.195780
2.582926
-7.948129
11.827677
-12.191674
10.521825
-14.464689
8.159051
-15.371054
-11.447768
-14.035005
-10.988901
-8.224868
7.511618
-6.221081
-13.502654
-13.369259
-10.558617
-8.058853
7.118398
-6.935048
-11.207151
-10.795673
7.726801
-6.707704
-13.307101
-11.537409
6.584151
4.967867
-0.851633
-7.214428
-13.900777
-12.500858
-1.575276
-8.214183
-14.282521
-10.552671
-1.734270
-8.301226
-13.167876
-9.918930
-1.684608
-5.072671
-9.234749
-7.891747
-1.785443
-1.643715
-6.582321
-3.767032
-1.045073
-2.319113
-0.331302
-6.524439
-0.212606
-7.053557
0.039539
-9.089602
1.590341
-1.575409
-2.321664
-6.359466
-6.406624
-13.922680
-0.737086
-5.068239
-4.607687
-8.675058
-1.099358
-4.518929
-7.200738
-4.384286
-8.664343
-4.069666
-9.470210
-4.690504
-10.583097
-4.182771
-13.549352
-5.465956
-15.733651
-8.640814
-15.554426
-14.685489
-14.535410
-10.195696
-12.548119
-14.213805
-9.261948
-9.803262
-13.223327
-14.310288
-16.165325
-15.728508
-14.810007
-15.209966
-7.910108
-13.067082
-9.874755
-13.103765
-15.610286
-12.929488
-11.210620
-13.473745
-17.411262
-14.546264
-13.767216
-13.911455
-19.593689
-13.489351
-15.146834
-20.725134
-20.916901
-10.301418
-16.607233
-25.441406
-22.932226
-8.069878
-15.705095
-3.973896
-12.952075
-5.341122
-12.346338
-13.284234
-14.857081
-18.598228
-18.583468
-12.886485
-14.075163
-20.729545
-18.289894
-7.413400
-14.229593
-6.806162
-5.672285
-5.786673
-1.169407
-5.154339
6.379341
-3.665886
0.203252
-3.435207
-0.991423
-3.366941
-5.127847
-4.086454
-5.085356
-4.156318
-5.468740
-2.345569
-7.160047
3.515047
-7.441550
-6.055255
-5.680060
0.980026
-5.024279
2.052560
-3.940939
4.069670
-4.606717
1.981093
-4.744161
4.073200
-4.176867
-6.290591
-6.126682
4.438899
-3.798512
0.267526
0.299897
6.418087
-5.024685
-0.652628
-1.022374
6.582179
-5.160866
-1.753937
-2.983540
5.237917
-8.984539
-2.073468
-3.630684
1.944026
-11.772473
-2.655892
-4.234332
1.090996
-12.143399
-12.009405
-12.816120
-4.839384
-6.629240
0.549942
-7.938871
-6.820618
-6.742371
1.619756
-5.511926
7.113681
-7.240943
2.613786
-1.749412
-8.441763
-7.391031
-4.250949
-2.276261
-7.808373
-7.822612
-7.833023
-2.873355
-5.630997
-6.782518
-10.609567
-3.289144
-3.721350
-10.729139
-10.673148
-3.644373
-3.377148
-9.365547
-12.310708
-8.886834
-13.885007
-14.475517
-11.422190
-15.544912
-11.119172
-16.172858
-10.420342
-14.427180
-11.333660
-14.682951
-10.986633
-14.272159
-9.295521
-15.781053
-9.646267
-18.027147
-8.820058
-14.078805
-10.879616
-14.204088
-12.069938
-15.095919
-11.004453
-12.853266
-14.888582
-15.923052
-14.897990
-15.494314
-15.361178
-14.025841
-18.487382
-19.957601
-9.289144
-12.868073
-9.995819
-8.976319
-8.948951
-2.917250
-17.478324
-17.094482
-19.821915
-5.403824
-25.015945
-5.671722
-19.397871
-13.201989
-0.870756
-7.943515
-6.506940
-9.372366
-7.226842
-10.289440
2.563171
1.305121
-7.616479
-12.568352
-6.457922
-5.055145
2.835665
-2.773939
-10.871937
-11.850412
-8.450232
2.659415
3.669244
-3.351626
-11.161951
-0.192565
0.750702
-4.910609
-7.155859
-6.401399
-5.833975
-5.647459
-7.073683
-6.504377
-5.815622
-8.348078
-5.988866
-8.819671
-4.702512
-12.667197
-4.923567
-12.213468
-5.878948
-16.097435
-5.046484
-16.241607
0.681941
-14.691497
4.882815
-9.926768
11.555009
-4.667456
9.143211
0.914500
11.918530
0.044121
1.573336
5.524397
4.729047
-0.211968
1.642662
5.137826
-0.092009
0.373395
0.499594
2.053607
-2.467920
-0.813598
-1.568501
1.102182
-3.035255
-4.678938
-0.694540
-4.643952
-1.382766
0.742879
-1.725344
-4.596491
-0.874353
-6.965799
-6.050196
1.864020
-1.909700
-5.821752
-9.712908
-7.077660
-0.622194
1.110898
-0.225135
-4.423852
1.609607
-7.184597
0.581961
-9.491718
-1.482574
-16.117027
-3.339484
-17.983669
-5.037075
-21.841700
-5.856598
-21.251743
-8.515922
-15.740195
-11.925594
-16.659881
-17.049748
-10.886605
-18.322553
-9.405626
-19.368990
-5.999997
-6.817456
-9.412959
-19.946292
-9.842501
-23.228107
-12.345554
-21.182020
-14.335171
-15.207207
-15.511986
-12.640306
-16.579218
-6.421316
-11.287574
-2.429716
-10.143165
-1.052739
-10.440027
0.707491
-12.207126
-4.343814
-10.899036
0.132128
-8.833261
-5.369076
-7.844046
-2.391629
-4.837693
-1.020340
-4.161356
-0.540099
-4.257086
-1.767957
-4.623004
-4.697255
-4.851569
-1.474850
-1.991796
-1.359425
-2.626262
-1.696691
-1.779685
-1.757334
-1.629207
-4.553576
-6.537183
-1.650295
-7.399246
-0.684571
-5.805769
-0.614320
-4.471605
-1.724492
0.135866
1.036534
-3.208064
-3.266959
-4.671840
-5.773116
-4.373468
-5.375347
-4.370036
-6.268771
-3.585087
-9.192957
-5.345422
-15.290173
-0.270144
-15.170218
-2.398614
-11.623033
-3.930695
-11.506721
-3.340771
-11.736202
-0.690741
-11.618259
8.040226
-13.559236
2.300211
-14.506991
-0.398479
-16.894368
-1.492612
-21.993267
-4.180580
-23.093608
-6.373298
-21.188011
-8.135789
-20.415628
-8.444425
-16.190131
-13.065692
-10.124768
5.347636
5.230617
-12.835973
-7.770271
6.060184
5.153394
-10.108445
-10.199005
5.496493
4.736525
-9.636487
-10.803220
-9.332363
-14.570214
-6.177676
-12.303599
-6.991680
-13.079433
2.343403
3.063225
-0.066412
-13.593758
-0.843255
1.494681
0.486301
-12.239821
-2.782793
-14.112325
-2.895617
-8.381140
0.745747
-7.777992
-2.069805
-7.264751
-2.702962
-6.635548
-0.215654
-5.609707
1.152435
-4.476928
-0.519455
-4.296077
-0.340469
-5.455212
0.014412
-8.521844
0.634720
-16.934689
1.758900
-14.730702
0.291660
0.617657
1.990447
-17.862123
0.090751
-16.117522
-1.802058
-6.385012
-3.118756
-1.608075
-2.539976
-5.889815
0.735577
-8.270357
-3.723484
-7.115883
-9.450688
-8.335848
-9.357761
-2.788564
-11.418212
-6.927899
-13.053996
-8.580125
-15.678511
-1.060114
-18.234795
-0.187617
-14.157849
-10.471067
-14.952377
3.338141
-7.996635
-5.175816
-7.328939
-6.987418
-10.695276
-6.903655
-15.401213
-7.267372
-14.172728
-9.058054
-7.901944
-9.706703
-15.255837
-10.725893
-3.368482
-7.054260
-16.056193
-14.613587
-16.219320
-18.110098
-13.980557
-5.386954
-5.667841
-18.432611
-12.789684
-5.023043
-6.353196
-14.508181
-13.947071
-4.327182
-5.789506
-12.762506
-15.805335
-9.603541
-17.662619
-3.247757
-12.031223
-10.164713
-13.354638
-14.584569
-19.333623
-2.954224
-11.857523
-12.374012
-12.125937
-14.850003
-19.710018
-2.142021
-14.155324
-14.082477
-16.848941
-2.740670
-14.033213
-2.730932
-16.453010
-2.481329
-14.617284
-1.286015
-18.032200
-1.259106
-10.589189
-13.250906
-21.510043
-2.209437
-12.685109
-7.095488
-18.772402
-4.866550
-11.070757
-5.052743
-18.727874
-6.442636
-10.142075
-5.096964
-23.831943
-9.212577
-7.949682
-9.407104
-23.715220
-9.251051
-10.904114
-9.524673
-15.421663
-17.145893
-23.429109
-7.840353
-14.150202
-10.669850
-11.394005
-10.850682
-10.907315
-11.892607
-11.106065
-16.412987
-11.185142
-16.561179
-10.892918
-8.413300
-10.187689
-8.224853
-10.471802
-4.254322
-9.666936
-1.066439
-10.678705
2.722680
-11.414919
2.167773
-12.252924
4.971467
-6.581921
-5.241820
-14.518903
6.572164
-8.357550
-5.291469
-9.331999
5.778788
-9.831226
2.443589
-7.832408
3.247696
-8.599882
4.843694
-7.776015
5.757566
-6.551715
-1.907937
-0.405390
5.287885
0.740953
7.138639
2.454809
5.347655
1.268269
6.031945
-0.718093
7.045806
0.193202
6.361427
2.423695
1.149478
0.536751
-6.577556
8.683924
7.236601
-2.636100
-7.361692
8.798172
8.431137
-2.899746
-6.610712
6.792524
7.760943
-1.400706
0.803242
2.971157
7.005862
0.227571
5.969669
-0.346986
2.564093
-0.206976
-0.713383
0.047812
-1.591714
-2.232315
-12.987832
-12.276642
-7.981414
-5.394547
-12.897787
-4.604674
-17.420406
-5.571709
-13.952822
-5.812315
-10.927496
-11.800448
-13.372680
-12.180523
-4.029323
-5.878241
-12.549313
-13.276520
-20.733549
-17.210111
-5.993732
-17.196051
-14.307253
-7.454265
-2.090428
-5.935390
-1.331644
-5.565565
-0.866487
-6.713387
0.517047
-5.001762
0.711166
4.121647
0.769936
-2.258301
-0.244069
-7.093967
-0.850756
-6.944011
-0.767749
-4.790226
-1.411500
1.547945
-2.201979
-1.876744
-2.794899
-5.736529
-4.148899
-9.874501
-7.616435
-0.350618
1.367873
-13.167076
-3.762529
4.912634
5.421875
0.236235
0.315243
-14.783653
-4.411382
4.999140
4.757383
-1.668679
-0.815530
0.435137
-0.904444
-2.980536
-0.372871
-14.306362
-4.463097
-3.269706
-1.097678
0.530598
-5.702162
-15.559075
-4.399234
4.215415
-0.262926
0.554103
-8.182477
-17.293276
-1.790332
3.708006
0.228150
1.159064
-10.282735
-18.528572
-4.850922
0.985402
1.106685
1.770493
-1.805195
0.349149
4.676094
-0.587785
3.486529
5.858430
-2.460980
-3.162463
-0.480255
5.938595
-5.792756
-5.683276
-7.153968
-6.939857
-6.942652
-5.638273
-9.901548
-6.012803
-11.870491
-8.164289
-13.898796
-11.167524
-10.765819
-10.324585
-8.475702
-8.435223
-15.048137
-15.712808
-5.273848
-3.752553
-7.673558
-13.235515
-5.223979
-6.858444
-4.838608
-2.559807
-7.583066
-11.333287
-1.969293
-4.253469
-5.395423
-10.852186
3.100386
-1.552876
-4.881143
-10.637425
3.162466
4.541796
5.892602
5.348541
5.033322
0.455905
-5.559512
-9.348684
2.782889
2.967469
3.870678
1.180954
-6.245114
-6.868421
2.842789
4.381508
-10.951882
9.537751
-12.277481
8.533284
-12.532632
-10.615264
-9.925763
7.388637
-11.968929
-11.815446
-8.550185
6.308731
-8.030247
-10.698206
-11.482860
-12.034323
-9.993685
8.019401
-7.192547
-12.890300
-10.937235
8.079925
5.589695
0.144694
-7.177204
-13.033028
-10.964740
-2.096911
-6.891701
-13.935318
-10.358715
-2.128539
-7.663308
-11.428451
-9.300611
-1.794457
-5.992978
-9.145079
-7.653685
-1.094222
-2.949161
-5.951705
-4.517689
0.600394
-4.432747
0.186584
-8.708016
-0.413226
-6.759787
-8.281758
-7.834400
-0.150483
-8.935616
-6.063322
-5.880154
0.864871
-1.472808
-0.772241
0.193140
-0.194287
-6.523150
-5.689810
-4.241843
0.356316
-5.145930
-4.967954
-0.521624
2.085533
-4.686783
-5.505685
-2.737694
4.789870
-4.622827
-0.657718
-1.083808
9.853549
-4.942900
-5.609641
-3.949449
-11.040148
-1.917010
-13.915274
-1.329570
-10.949516
-7.426868
-15.641010
-11.697767
-11.902181
-8.316326
-15.540644
-12.878862
-9.607877
-15.115123
-11.247290
-14.733451
-12.401316
-15.677189
-14.032465
-12.770521
-11.605646
-14.344147
-15.494806
-13.540927
-8.939468
-15.158515
-17.574252
-14.605777
-15.521803
-17.606412
-19.835029
-13.392824
-17.544433
-23.246556
-21.909240
-10.475050
-16.099191
-25.356446
-24.580119
-9.735577
-14.662131
-12.663975
-15.600903
-16.900666
-16.491064
-20.971138
-19.265101
-11.885486
-12.493244
-14.962628
-17.187231
-20.584659
-16.610178
-8.078316
-11.107497
-12.672136
-12.196595
-6.664028
-5.573820
-6.198495
-2.449590
-5.758472
-2.043887
-4.909007
-2.239235
-3.943112
-2.001619
-2.934473
-5.226849
-3.257486
-4.328805
-3.245355
-3.181751
-1.171540
-4.045202
3.444309
-5.044505
-4.766856
-4.822159
-1.313493
-3.909160
0.236268
-4.535045
7.375260
-3.473716
-0.068477
-3.776266
1.758692
-4.776377
2.824556
-8.876836
-1.152038
-0.939783
3.862880
-12.999044
-2.323844
-2.699014
2.331857
-15.918418
-3.729747
-5.142305
0.470798
-11.335995
-4.093628
-5.596384
0.866425
-10.956414
-4.223215
-7.076624
0.750172
-9.750317
-4.301946
-11.419576
0.391305
-9.606889
0.786694
-8.423018
1.207704
-8.016387
-0.846043
-6.617469
-4.349310
-4.751145
-9.791381
-3.466104
-11.778269
-8.318111
-12.452639
-9.562123
-13.914775
-10.906765
-14.083563
-11.568387
-12.491410
-10.828559
-13.343000
-15.552326
-11.443215
-18.726894
-11.007661
-18.835945
-10.534267
-16.293344
-10.826814
-15.669202
-11.685601
-16.267004
-11.924165
-11.039535
-12.608981
-15.443407
-13.798321
-6.447379
-8.761662
-16.680554
-11.468009
-11.894490
-12.753441
-14.937865
-15.884726
-16.392295
-11.500078
-12.750874
-7.500344
-12.498570
-10.255130
-9.109919
-15.019723
-8.850261
-8.569623
-11.577253
-16.531009
-8.597306
-18.662286
-13.159464
-18.781914
-8.894984
-2.944587
-15.618611
-7.883188
-18.152105
-7.866430
-8.747064
-6.664117
-9.433404
-7.962930
-9.750369
2.932995
3.273191
-7.953378
-9.816272
-3.574527
-2.715520
2.905864
-2.664122
-10.211322
-10.155313
-9.805766
1.064683
2.877364
-4.016731
-9.359920
-4.705212
-7.481114
-6.337077
-7.380131
-6.433860
-9.247274
-6.942763
-6.539829
-9.594661
-5.012437
-11.473229
-5.227601
-12.271610
-5.488345
-10.442872
-5.058046
-14.272651
-3.952709
-15.647113
0.963902
-12.409893
4.320734
-8.865411
8.947112
-5.710023
6.617736
-1.189232
5.533225
-0.020438
1.020325
2.886460
4.101698
-1.156489
0.672792
4.278364
0.652727
-1.147133
0.365921
3.772851
-1.574146
-2.051035
-2.046068
-1.294043
-1.647245
-2.618899
-3.508686
-3.672402
-0.638912
-5.837332
-0.499019
-7.769744
-3.671640
-3.335675
-0.964549
-2.791186
-9.510960
0.117830
-11.914369
-12.544424
1.106053
-5.188360
1.518409
-7.880520
0.392097
-7.019191
-0.880185
-15.934463
-3.447235
-16.762785
-6.853306
-19.088506
-8.187984
-17.053858
-10.421005
-11.561051
-11.051564
-11.318855
-17.705520
-6.880472
-7.969011
-10.376117
-16.792463
-6.927972
-17.895014
-6.320284
-22.977590
-3.911065
-22.022418
-2.863835
-0.149932
-10.664152
-19.674099
-13.426893
-13.786857
-13.676125
-11.928277
-13.041396
-7.092349
-8.397750
-3.896566
-10.913497
-2.418862
-13.418614
-1.948076
-13.055968
-4.365196
-10.339054
-0.798460
-0.843011
-1.335701
-9.459604
-7.461548
-8.996215
-3.434400
-4.289282
-4.587099
-4.992591
-2.122981
-8.454587
-0.083869
-16.696487
0.823580
-15.022998
1.731241
-12.550074
-2.806751
0.813278
1.964443
-6.612573
-4.024844
-5.772941
-3.574727
-1.421157
-4.758834
-3.797436
-7.657384
-3.461717
-14.863472
0.324570
-14.689169
-3.568926
-11.718824
-2.947167
-10.427196
-2.895895
-12.861656
-5.973012
-12.871064
-12.103391
-13.155676
1.158948
-7.597745
-12.862515
-14.454803
-0.465172
-17.255778
-1.461269
-23.465246
-6.790471
-24.624397
-8.250099
-22.068007
-12.066377
-15.097616
-12.996148
-9.020748
-15.475347
-7.427763
-15.774263
-21.732554
-20.304342
-7.523989
-13.111869
-20.591655
-17.826768
-13.405854
-8.493032
-8.804963
-13.372733
-11.109116
-10.557594
-7.004267
-4.503254
-13.187695
-3.170862
-11.100132
-1.162010
-13.496741
-0.494458
-11.960335
-0.030212
-8.945028
-2.068999
-5.421479
1.705219
-4.510930
-0.441492
-2.579313
-1.168008
-3.697572
-0.893082
-2.769601
-4.731998
-3.306170
-3.421724
-3.661968
-1.945394
-5.185367
-0.868090
-6.475206
0.207489
-7.034783
1.733298
-17.686566
6.773349
-23.887259
3.565078
-17.364216
-20.909475
-22.286675
-0.967000
5.342985
0.796467
-17.145732
-19.985027
-17.901239
-2.885405
-11.770806
-5.797199
-7.961395
-6.046622
-6.712507
-2.984894
-7.836945
-5.904038
-6.688006
-9.361708
-7.228608
-9.276878
-5.370859
-9.693928
-4.708376
-12.158508
-4.954220
-16.630235
-2.499668
-18.269656
-0.987715
-18.953783
0.603014
-10.634099
-3.735077
-6.843405
-10.640728
-13.211939
-2.183163
-7.073604
-1.797699
-6.622840
-4.882274
-0.487664
-7.457318
-6.231168
-7.418053
-9.124372
-5.686017
-11.363346
-2.717295
-12.786707
-9.547107
-8.131097
-3.865749
-13.623719
-10.143618
-18.059218
-13.040861
-17.333603
-17.134490
-17.468641
-14.912873
-15.399278
-12.140091
-13.976707
-4.236513
-3.970389
-10.941384
-13.005350
-10.326293
-12.407388
-16.434844
-18.734577
-1.186434
-9.865313
-10.776924
-10.700423
-16.222388
-18.087059
-1.524339
-13.234025
-16.251366
-20.684802
-1.140729
-12.557601
-14.308327
-18.194073
-1.131023
-18.247882
-0.500221
-16.471066
0.205457
-18.441790
-1.368292
-17.255493
-2.971045
-10.364538
-14.348823
-17.888188
-5.210328
-7.217300
-14.139848
-18.836979
-6.835864
-7.787194
-9.768397
-24.994727
-8.119088
-11.678285
-9.287229
-22.957784
-10.103467
-11.081731
-8.881882
-23.065359
-11.412455
-22.189055
-9.319898
-19.764716
-10.526761
-14.453006
-10.531314
-12.278755
-11.278721
-12.152285
-9.935264
-7.380049
-10.066014
-12.805408
-10.747448
-10.840096
-10.687118
-10.636286