# vtk DataFile Version 1.0
vtk file 8ieg_3:C:C_model1
ASCII
DATASET POLYDATA

POINTS 10654 double
-11.681000 -26.102000 -0.355000
-10.540000 -26.197000 -0.384000
-9.693000 -25.868000 -0.375000
-7.056000 -26.135000 -0.306000
-14.380000 -26.284000 0.832000
-5.691000 -26.228000 0.715000
-13.973000 -26.200000 1.664000
-5.496000 -26.289000 1.761000
-12.635000 -26.340000 2.681000
-4.833000 -26.016000 2.667000
-9.844000 -26.092000 3.559000
-3.677000 -26.130000 3.578000
-4.909000 -26.099000 4.731000
-2.878000 -26.298000 4.571000
-4.643000 -26.269000 5.566000
-3.482000 -26.080000 5.539000
-17.889000 -2.122000 -14.255000
-15.511000 -2.132000 -14.329000
-18.477000 -2.102000 -13.107000
-15.035000 -2.133000 -13.351000
-18.904000 -2.061000 -12.167000
-14.549000 -2.252000 -12.506000
-19.291000 -2.043000 -11.310000
-13.887000 -2.303000 -11.408000
-0.695000 -2.016000 -11.276000
1.373000 -2.202000 -11.510000
-19.028000 -2.116000 -10.541000
-13.428000 -2.194000 -10.367000
-4.077000 -2.060000 -10.290000
1.307000 -2.015000 -10.443000
-18.425000 -2.111000 -9.627000
-13.021000 -1.917000 -9.297000
-4.819000 -2.071000 -9.328000
1.180000 -2.110000 -9.471000
6.430000 -2.044000 -9.322000
7.140000 -2.132000 -9.302000
-18.082000 -2.173000 -8.471000
-12.111000 -2.035000 -8.204000
-9.761000 -2.023000 -8.358000
-7.775000 -1.994000 -8.308000
-6.614000 -2.043000 -8.255000
1.311000 -2.045000 -8.592000
3.353000 -2.049000 -8.266000
8.213000 -2.273000 -8.313000
-18.547000 -1.951000 -7.436000
8.881000 -2.273000 -7.244000
-18.610000 -1.969000 -6.569000
9.115000 -2.107000 -6.371000
-18.565000 -2.062000 -5.587000
9.201000 -2.107000 -5.371000
-17.823000 -2.123000 -4.351000
9.203000 -2.107000 -4.371000
-17.398000 -2.252000 -3.551000
8.917000 -1.989000 -3.521000
-15.602000 -2.142000 -2.299000
8.103000 -2.070000 -2.427000
-14.708000 -2.107000 -1.375000
-12.661000 -2.077000 -1.312000
-9.980000 -2.085000 -1.144000
-5.693000 -1.964000 -1.386000
-3.846000 -2.121000 -1.155000
7.895000 -2.053000 -1.320000
-9.920000 -1.980000 -0.216000
-5.679000 -2.148000 -0.493000
-3.590000 -2.194000 -0.342000
7.962000 -2.004000 -0.219000
-10.018000 -2.108000 0.729000
-6.621000 -2.073000 0.558000
-1.748000 -2.103000 0.735000
2.268000 -2.152000 0.635000
3.044000 -2.092000 0.884000
7.542000 -2.131000 0.811000
-13.614000 -2.160000 1.748000
-13.060000 -2.269000 1.478000
-9.718000 -2.126000 1.545000
-6.687000 -2.173000 1.489000
3.892000 -2.124000 1.845000
7.145000 -2.099000 1.539000
4.204000 -2.154000 2.672000
6.427000 -2.107000 2.631000
5.387000 22.005000 -13.266000
7.034000 21.906000 -13.217000
4.542000 21.922000 -12.269000
8.301000 21.847000 -12.271000
4.441000 21.893000 -11.371000
9.011000 21.905000 -11.301000
4.451000 21.993000 -10.471000
9.370000 22.100000 -10.399000
4.162000 21.975000 -9.487000
10.277000 21.913000 -9.503000
3.535000 21.893000 -8.423000
12.334000 21.908000 -8.470000
2.959000 22.003000 -7.536000
12.940000 21.682000 -7.481000
1.429000 21.830000 -6.312000
12.262000 21.989000 -6.473000
0.311000 21.772000 -5.135000
11.560000 21.924000 -5.299000
0.378000 21.768000 -4.213000
11.184000 21.965000 -4.391000
0.998000 21.962000 -3.309000
5.301000 22.038000 -3.388000
7.170000 21.754000 -3.115000
10.176000 21.957000 -3.409000
7.538000 21.694000 -2.268000
9.460000 21.955000 -2.439000
6.392000 21.796000 6.850000
8.998000 21.671000 6.520000
6.267000 21.785000 7.795000
9.309000 21.787000 7.417000
6.470000 21.834000 8.729000
9.431000 21.949000 8.462000
20.065000 21.838000 8.604000
22.050000 21.730000 8.668000
6.404000 21.748000 9.624000
9.166000 21.919000 9.455000
19.407000 21.805000 9.811000
22.477000 21.776000 9.551000
6.943000 21.821000 10.725000
8.484000 21.944000 10.560000
19.421000 21.751000 10.723000
22.311000 21.871000 10.611000
20.133000 21.864000 11.710000
21.320000 21.854000 11.603000
-14.233000 -26.298000 0.324000
-14.166000 -26.091000 1.277000
-13.481000 -26.218000 -0.099000
-13.281000 -26.233000 2.065000
-12.372000 -26.041000 -0.111000
-12.103000 -26.142000 3.039000
-11.309000 -26.318000 -0.522000
-11.207000 -26.168000 3.339000
-10.396000 -25.932000 -0.304000
-10.299000 -26.012000 3.319000
-9.386000 -26.201000 -0.515000
-9.270000 -26.035000 3.963000
-8.281000 -25.994000 -0.840000
-8.278000 -26.107000 4.208000
-7.275000 -25.984000 -0.528000
-7.378000 -26.207000 4.153000
-6.396000 -26.225000 0.126000
-6.278000 -26.125000 4.036000
-5.166000 -26.026000 2.125000
-5.361000 -26.065000 4.127000
-4.323000 -26.133000 3.266000
-4.150000 -26.317000 5.822000
-3.432000 -25.992000 4.040000
-3.083000 -26.256000 5.449000
-19.197000 -2.155000 -11.540000
-19.255000 -1.955000 -10.958000
-18.305000 -2.352000 -13.683000
-18.268000 -1.861000 -9.180000
-18.237000 -2.151000 -7.912000
-18.348000 -2.056000 -4.963000
-17.326000 -2.228000 -14.863000
-17.121000 -2.158000 -3.149000
-16.449000 -2.133000 -14.948000
-16.297000 -2.181000 -3.003000
-15.263000 -2.145000 -14.044000
-15.229000 -2.125000 -1.845000
-14.280000 -1.919000 -11.893000
-14.058000 -2.053000 -0.962000
-13.246000 -2.029000 -10.140000
-13.163000 -2.232000 -0.900000
-13.413000 -2.168000 1.444000
-13.213000 -2.193000 1.911000
-12.452000 -1.985000 -8.482000
-12.217000 -2.050000 -1.570000
-11.274000 -2.107000 -8.119000
-11.207000 -2.054000 -1.847000
-10.331000 -2.171000 -8.198000
-10.256000 -2.078000 -1.659000
-9.409000 -2.287000 -8.605000
-9.227000 -2.200000 2.005000
-8.497000 -2.196000 -8.753000
-8.207000 -2.170000 2.259000
-7.224000 -2.036000 -8.135000
-7.188000 -2.267000 2.256000
-6.286000 -2.206000 -8.558000
-6.091000 -2.278000 0.110000
-5.485000 -2.163000 -8.912000
-5.212000 -1.962000 -1.922000
-4.426000 -2.132000 -10.070000
-4.237000 -2.066000 -1.733000
-3.378000 -2.149000 -10.632000
-3.054000 -2.162000 -0.018000
-2.445000 -2.108000 -10.959000
-2.232000 -2.050000 0.186000
-1.465000 -2.003000 -11.140000
-1.078000 -1.955000 1.159000
-0.302000 -2.138000 -11.596000
-0.178000 -2.085000 1.415000
0.544000 -2.130000 -11.878000
0.817000 -2.145000 1.125000
1.806000 -1.896000 -8.072000
1.854000 -2.304000 0.770000
2.693000 -2.026000 -7.984000
2.517000 -1.984000 0.609000
3.688000 -2.187000 -8.736000
3.634000 -2.151000 1.300000
4.650000 -2.031000 -9.062000
4.852000 -1.978000 3.058000
5.763000 -2.064000 -9.225000
5.788000 -2.165000 3.091000
6.749000 -2.013000 -9.413000
6.801000 -2.059000 2.047000
7.583000 -1.983000 -9.029000
7.702000 -2.338000 0.314000
8.666000 -1.940000 -7.680000
8.553000 -2.363000 -3.027000
0.769000 21.830000 -5.868000
0.674000 21.955000 -3.671000
1.715000 21.786000 -6.527000
1.935000 21.798000 -2.698000
2.511000 21.772000 -7.114000
2.822000 21.868000 -2.904000
3.752000 21.808000 -8.787000
3.722000 21.817000 -3.045000
4.861000 21.756000 -12.770000
4.776000 21.711000 -3.058000
5.884000 21.917000 -13.451000
5.847000 22.068000 -3.569000
6.568000 22.111000 -13.431000
6.843000 22.058000 -3.644000
6.725000 21.723000 6.319000
6.795000 21.946000 10.404000
7.708000 22.132000 -12.774000
7.965000 21.883000 -2.018000
7.539000 21.773000 6.042000
7.791000 21.697000 10.987000
8.716000 21.997000 -11.992000
8.809000 21.910000 -1.840000
8.493000 21.839000 6.251000
8.854000 21.876000 10.286000
9.737000 22.015000 -9.735000
9.860000 21.846000 -2.915000
10.701000 22.159000 -9.227000
10.661000 21.917000 -3.756000
11.630000 21.999000 -8.895000
11.848000 21.757000 -5.749000
12.663000 21.998000 -7.997000
12.708000 21.747000 -6.914000
19.743000 21.759000 8.936000
19.819000 21.935000 11.239000
20.641000 21.749000 8.366000
20.855000 21.709000 11.950000
21.502000 21.804000 8.406000
21.799000 21.834000 11.325000
-15.312000 -6.915000 1.875000
-15.342000 -3.441000 1.462000
-14.179000 -28.837000 1.632000
-14.292000 -26.416000 1.529000
-14.253000 -13.511000 1.744000
-14.145000 -2.476000 1.555000
-13.282000 -36.705000 1.793000
-13.407000 -34.375000 1.643000
-13.354000 -29.774000 1.726000
-13.335000 -25.880000 1.560000
-13.292000 -15.660000 1.642000
-13.321000 -2.095000 1.653000
-12.180000 -38.605000 1.525000
-12.481000 -33.271000 1.542000
-12.235000 -31.443000 1.749000
-12.278000 -25.674000 1.629000
-12.314000 -16.777000 1.771000
-12.342000 -2.725000 1.637000
-11.057000 -37.727000 1.789000
-11.337000 -25.302000 1.611000
-11.161000 -22.653000 1.611000
-11.438000 -20.432000 1.475000
-11.417000 -17.958000 1.638000
-11.298000 -3.010000 1.601000
-10.112000 -37.976000 1.729000
-10.457000 -24.451000 1.497000
-10.215000 -23.714000 1.760000
-10.379000 -2.671000 1.516000
-9.278000 -37.949000 1.656000
-9.231000 -1.688000 1.489000
-8.369000 -37.578000 1.756000
-8.350000 -1.610000 1.536000
-7.361000 -37.052000 1.391000
-7.411000 -1.813000 1.672000
-6.345000 -37.465000 1.815000
-6.309000 -2.647000 1.540000
-5.474000 -37.238000 1.684000
-5.250000 -28.554000 1.756000
-5.179000 -25.869000 1.428000
-5.272000 -20.755000 1.885000
-5.439000 -19.372000 1.586000
-5.358000 -4.583000 1.602000
-4.404000 -35.785000 1.426000
-4.340000 -29.571000 1.652000
-4.298000 -24.455000 1.574000
-4.317000 -21.494000 1.631000
-4.234000 -17.783000 1.678000
-4.350000 -4.524000 1.690000
-3.555000 -35.372000 1.518000
-3.295000 -33.606000 1.671000
-3.085000 -16.838000 1.530000
-3.355000 -4.233000 1.732000
-3.448000 15.754000 1.656000
-3.248000 16.271000 1.675000
-2.259000 -16.330000 1.576000
-2.449000 -3.641000 1.635000
-2.325000 13.454000 1.678000
-2.063000 14.238000 1.535000
-1.206000 -15.926000 1.856000
-1.388000 -2.500000 1.456000
-1.307000 12.632000 1.804000
-1.063000 15.369000 1.564000
-0.224000 -16.396000 1.621000
-0.445000 -2.442000 1.651000
-0.232000 6.105000 1.694000
-0.278000 8.078000 1.441000
-0.252000 12.174000 1.697000
-0.351000 15.707000 1.478000
0.584000 -16.675000 1.429000
0.515000 -2.678000 1.637000
0.892000 5.617000 1.565000
0.486000 8.378000 1.488000
0.841000 11.525000 1.584000
0.614000 16.475000 1.641000
1.635000 -17.160000 1.869000
1.787000 -3.613000 1.624000
1.685000 5.422000 1.731000
1.655000 9.277000 1.567000
1.710000 11.429000 1.775000
1.726000 16.802000 1.370000
2.586000 -16.652000 1.659000
2.551000 -3.607000 1.603000
2.621000 3.361000 1.646000
2.541000 17.368000 1.604000
[...]
POINT_DATA 10654
SCALARS Potential double
LOOKUP_TABLE default
7.069868
6.539676
7.642983
7.444332
7.472586
6.318493
7.522421
5.716609
6.218903
5.306560
4.080278
7.690532
10.667336
10.764411
12.084768
8.265916
8.868646
8.627016
7.956941
8.758404
7.944784
10.002372
15.833517
8.534886
-4.246458
-12.350421
16.666296
6.889902
4.781172
-12.483447
21.869142
7.439614
3.219079
-11.207622
-7.434737
-6.567166
20.799992
9.143892
8.447419
5.148816
2.963375
-9.459769
-11.213563
-4.915162
19.839622
-4.651892
16.418461
-3.613658
17.966005
-2.739858
15.448518
-1.259765
17.128546
0.352883
10.943145
1.219483
10.404378
9.382096
12.344472
9.339285
9.843403
1.641652
11.903923
10.577951
12.083068
2.925427
11.429979
10.933298
10.222861
7.526011
8.808717
3.418594
15.979373
14.027102
11.784346
12.228513
8.057947
4.444522
9.219122
6.724219
20.282283
19.830326
21.196132
19.417105
22.654239
18.539503
18.050510
18.622837
15.234973
18.192648
17.278461
17.906432
19.950333
15.437289
13.086427
17.860655
17.480566
18.469192
19.525433
22.049458
20.417959
27.673506
26.543403
22.002391
31.313348
24.869935
33.280778
27.941488
35.451895
20.981868
28.125329
20.103838
16.311454
20.531506
31.635991
18.002173
16.024211
12.569152
25.187280
20.484571
16.750381
10.156702
16.352746
11.970890
7.287028
7.963265
6.469920
6.856549
6.253645
7.091928
6.987588
6.417401
6.748461
4.656347
8.619842
3.929422
9.879428
3.357017
7.230298
4.481180
6.000630
6.407405
5.297854
7.673064
5.067994
8.053810
8.138062
7.387146
11.459535
15.662852
7.611935
19.857527
20.332319
16.713564
9.488145
17.325819
9.410545
10.110267
11.026753
10.034630
8.932467
11.404371
8.236731
11.232181
15.821388
15.789279
9.847304
9.533452
10.069311
11.881683
8.654417
12.907144
8.976855
11.389231
7.902274
11.302732
3.823141
12.319611
2.186390
9.206027
1.877874
9.086648
4.742339
9.204409
3.174792
12.124383
1.006704
10.473023
-1.442443
11.201805
-5.617911
10.369568
-9.432659
8.929927
-8.574557
7.837203
-9.219492
5.952487
-13.641440
7.453192
-13.725222
8.619382
-9.844627
6.825491
-8.033770
5.204599
-4.607028
2.874331
-4.297461
0.926558
15.805793
22.686031
17.918910
24.250665
18.325531
28.029631
14.571400
29.329226
19.574212
33.808898
21.163742
27.647074
21.120242
22.346156
31.470369
28.218094
17.573328
29.316589
30.375756
20.529657
19.700913
24.154026
29.857859
18.743785
15.909707
23.646047
20.959659
22.538334
17.901481
18.436672
18.661615
16.571190
14.694069
18.438541
16.474276
12.426913
20.502432
10.988119
13.962186
14.994116
6.401991
7.598799
14.709531
14.177360
-0.062590
1.739715
4.495917
7.408200
13.843089
22.824076
-0.205461
3.114837
4.438268
6.820488
10.238018
13.431436
-4.373906
7.230639
9.921574
10.245763
10.453416
12.588317
-6.218443
7.169612
7.858648
13.017748
-6.179332
11.936288
-4.889235
10.536978
-2.643505
11.901187
1.532226
12.042229
4.026820
5.134547
5.523908
3.692044
4.706879
10.515647
4.657450
7.711389
7.159776
4.028483
6.050362
10.636547
4.653492
6.984293
4.465826
9.264348
21.829027
24.203433
2.596778
11.720262
14.697333
17.797759
1.726073
10.705702
19.484754
23.995601
0.918001
10.744179
15.699507
16.572772
17.289342
26.133419
0.676725
9.631916
12.646259
14.557842
17.059883
27.295169
3.472812
7.222326
9.795014
15.595159
13.949872
29.096284
8.380907
7.936140
9.764522
32.334900
0.369805
7.961995
8.255339
8.490061
8.619657
32.344908
27.201803
21.819607
-2.442073
31.907589
26.175739
17.745844
-3.575242
34.842362
27.532456
16.514355
-2.935141
3.192465
3.762074
37.005918
25.729359
15.996342
-2.903935
0.364961
4.720588
29.065415
-1.605280
1.424898
4.193590
25.696264
0.603856
2.894449
5.327238
25.498547
3.909908
5.450068
7.249227
24.573677
5.407321
9.564361
8.784011
21.098396
8.343784
7.554871
7.654669
18.314073
7.263485
7.817122
7.808837
16.374146
8.129311
18.186918
9.867960
17.097559
14.444392
15.044299
14.230391
14.884709
7.006485
7.532976
6.494053
5.824891
7.983541
6.531848
7.354244
6.513119
4.007809
3.913571
2.429515
2.948654
3.194241
9.432312
8.261534
8.991657
7.149719
9.813945
8.907102
5.896003
14.320214
6.307104
17.112736
5.615414
-1.704201
-9.714839
13.788826
7.087484
2.087041
-8.414230
-8.494840
-3.766157
16.950177
10.390894
11.645914
5.462035
3.705602
-3.957726
15.337658
-3.521091
20.137951
-3.108483
22.718179
-1.710300
11.486174
11.994806
11.074332
0.556219
10.801600
12.494688
12.089231
10.034675
9.673223
1.322109
12.099053
0.853961
14.327535
12.951699
9.825052
1.930216
13.020352
13.226858
12.494432
10.062415
8.519556
3.288484
9.781517
5.112261
9.482439
5.860345
26.666927
26.131547
22.773323
19.139965
21.723064
18.982829
18.080021
19.225081
15.403783
19.815728
18.463305
22.420531
18.279836
18.941087
15.876879
19.797594
19.528460
20.267915
21.638408
22.846586
29.226135
24.105065
20.073538
17.138409
8.213880
7.695351
6.577206
5.979082
7.348738
1.879608
6.504018
1.345739
6.509984
2.726268
5.662086
4.054855
6.054450
3.068942
3.246634
6.709970
16.590174
19.059809
17.072044
19.764774
16.122012
21.208327
7.654799
16.705650
16.841077
18.164002
6.646357
17.773315
9.142918
13.031250
9.279859
8.985156
8.114286
10.288458
6.803787
8.786426
11.267269
9.918223
10.409462
11.841406
9.367518
12.269667
8.776723
10.774918
14.505917
13.903796
7.960882
9.888613
14.281287
13.178989
5.651086
12.377801
3.566259
10.882469
3.324063
9.573619
2.948289
9.174004
0.986573
8.124532
-0.729130
11.274383
-2.824475
11.170498
-5.456000
10.789544
-5.766298
9.200451
-7.779907
8.924092
-10.304601
9.953801
-10.615190
9.031463
-9.860521
9.013474
-8.058398
6.774960
-4.757636
5.890637
-3.924173
1.068313
1.056413
5.771486
-4.124191
-0.149844
16.690841
22.524560
17.540929
23.115150
15.952261
22.223466
21.222737
25.892871
24.279772
25.434079
20.602513
24.715794
17.898207
23.086165
20.213460
29.701213
21.552446
26.929051
27.309382
23.058767
23.126801
18.544290
17.205233
22.028433
13.604822
13.054995
10.961195
13.769569
-1.781648
0.309273
12.543851
13.558084
-3.045237
2.019426
5.166794
7.674024
12.430196
12.210996
-3.345654
6.714785
9.066956
11.280898
-4.526561
5.805284
4.349185
12.243130
-5.956417
13.078431
-4.575096
11.992604
-1.745397
13.014346
1.340529
2.779731
4.888862
9.694738
3.672830
4.276035
4.707552
4.853037
7.771690
9.041690
9.789675
10.014470
3.753367
9.462893
8.816164
5.562710
4.579631
5.878818
9.169248
11.826292
21.805412
23.389325
4.546915
6.571415
10.688648
7.266372
6.513969
11.678933
20.780995
28.031218
5.244799
10.144104
20.013563
28.366752
3.795166
9.864346
18.158096
25.284575
2.941481
10.070411
18.623441
29.132021
5.121393
9.972660
17.931385
30.681733
4.414784
7.097918
12.596971
14.733425
17.073382
30.491451
4.258788
6.642280
11.123375
12.990730
14.546563
28.149662
1.475483
8.739583
9.624549
31.066570
0.556217
9.291079
10.994390
27.932028
-0.471763
30.146076
-0.812084
3.982218
5.999094
33.610375
0.170768
2.527011
2.774323
2.949311
5.668739
29.556537
1.802516
3.516120
8.584245
26.051491
5.427739
5.155357
6.174003
24.250312
12.304939
5.890260
8.643800
25.264181
8.992783
7.196628
7.469922
18.215619
6.907017
8.216032
5.465381
18.190746
7.281208
17.563581
9.426001
18.305527
11.158544
15.552848
15.215247
14.618899
19.821352
15.364697
3.422695
4.255312
8.663030
5.665920
7.889403
6.354425
7.302033
9.425486
4.561762
7.971650
1.916416
6.858940
6.263709
5.785035
7.682232
6.646516
8.258106
8.057908
-2.406961
-7.666311
-6.636455
-2.980231
16.920143
12.719287
5.828117
-8.969953
-7.527836
-3.632022
18.142952
13.548803
12.503029
-3.632562
22.897871
14.912117
10.941866
-3.419629
25.026831
13.400692
9.373529
-1.855098
17.755111
19.422546
18.647044
15.518891
11.180914
-0.053720
12.520720
9.946551
9.539842
1.362206
12.181881
1.229237
11.469475
2.274597
9.979919
3.576824
8.020207
4.981717
8.599957
6.627207
18.271076
17.699076
18.268436
17.485865
17.836016
18.867143
16.008920
20.387408
14.504269
23.577671
14.459788
20.331056
18.301770
18.635539
17.766031
19.928989
24.210582
25.885376
5.726793
7.240095
5.200832
3.238856
2.835391
0.740196
3.125454
1.528315
4.275198
3.347046
5.095912
4.381715
8.525072
7.141022
14.175267
16.727736
15.298782
18.315067
14.788266
20.180296
13.148847
16.732259
9.690247
16.142880
8.517902
13.614064
6.555652
11.787669
6.053215
10.024717
11.416333
15.058700
9.843000
11.305478
8.028202
9.325401
6.763353
11.382751
5.510668
11.190338
5.097194
10.625052
3.700163
10.580569
1.811944
9.687581
-0.265354
7.453715
-2.437489
11.852219
-3.204799
10.113378
-5.047626
8.268798
-7.239464
9.057366
-8.785331
10.345442
-7.468816
9.119626
-8.724788
9.148754
-5.692021
7.151658
-3.944519
5.948972
-3.244503
5.751729
-3.375705
0.777392
16.741863
22.673840
18.950610
23.029058
20.037067
21.619874
18.490126
25.228235
17.430437
25.233503
17.008900
25.331889
17.907826
29.926156
21.210133
23.095215
22.291049
18.511130
11.094860
16.465809
9.625851
12.390528
-1.540558
-0.555025
14.294038
11.272892
10.321444
10.785026
-2.806386
2.300625
13.478510
12.349429
15.707439
10.688522
-2.119051
6.837292
7.580558
12.110634
-2.780222
5.779452
4.875514
11.245419
-4.473422
2.348617
2.185768
11.348463
-2.899777
11.599175
-0.999037
1.552670
10.406150
9.801131
1.112048
4.579573
3.617097
2.587270
10.317262
10.372236
2.780692
4.366685
3.809216
7.764755
10.883940
10.633099
24.461305
26.014218
3.810111
12.712478
9.308460
11.052320
20.626983
23.209508
4.318662
7.300376
4.793461
8.058044
8.934789
10.251995
24.651687
41.548150
4.569130
4.812657
2.640058
3.034139
6.862819
11.370398
26.101219
31.493244
5.015704
10.810736
21.976309
32.296239
3.644939
11.814472
21.490410
30.177741
11.664047
10.850725
17.036996
33.124849
7.249679
8.566292
16.176628
29.137863
3.913098
7.355572
12.283257
15.813334
16.042047
28.377207
2.157559
8.936534
10.298793
29.346210
1.942515
8.693593
8.551624
27.647293
2.327257
6.996442
7.711466
25.565052
2.247854
5.208792
6.307723
26.132601
3.024651
3.638708
3.002910
5.303974
6.438976
30.069051
4.572359
4.258412
6.498402
28.218932
6.351795
5.849955
6.657767
26.869807
9.719207
7.616565
8.731441
25.651354
9.481139
7.994524
8.657058
15.223411
6.717349
15.312161
10.488410
15.593534
9.950916
14.319510
9.258698
12.571485
14.606484
12.806473
14.462147
12.909204
7.746462
0.586371
8.515088
2.390391
8.511803
5.507056
8.951180
6.383808
8.739456
15.625276
7.584987
9.189213
1.397298
7.039819
-1.895958
-5.313579
14.558891
16.723930
-0.121843
-6.527898
-4.597154
-2.142632
19.722184
12.652154
6.837844
-2.749862
24.771981
12.867382
8.681820
-2.669464
17.322706
14.499536
9.849836
-2.306542
16.611535
14.579503
10.363896
-1.210458
16.406622
15.855043
14.357109
13.856719
11.754917
0.181632
12.047669
12.612313
9.865099
0.617316
12.683369
1.625611
11.505252
4.340833
10.332065
5.137520
8.702431
4.666510
9.225903
7.279013
20.734261
17.363911
15.470847
17.548465
15.389491
20.011956
14.137749
20.240054
16.037965
18.109849
14.141239
24.321321
15.943386
20.489546
18.072641
23.201134
8.434048
9.408924
6.247261
8.179239
3.865616
8.894308
1.241698
4.512688
0.231735
-0.054120
0.220669
0.944042
2.666616
2.940592
4.286311
5.983289
7.813004
7.177302
11.603291
8.246984
16.146007
17.609034
15.194911
14.741065
16.862699
15.872023
14.768882
14.086497
15.122549
16.363851
13.565472
15.337503
11.540012
13.228594
11.058197
13.905679
8.205889
13.086862
6.837975
12.349128
5.931610
10.834892
4.514524
10.976120
3.081819
9.965690
1.574514
8.759639
0.349935
12.454328
-0.989335
9.453362
-2.824754
9.413872
-4.069139
9.499430
-4.956958
10.230304
-6.591314
8.929359
-5.419743
10.013502
-4.385060
8.276280
-2.651959
5.925248
-2.358478
5.864291
0.912539
5.247762
2.115334
4.933737
3.003440
4.473110
15.319291
14.078434
12.608147
20.324539
15.870079
24.078407
18.171155
22.981020
17.386921
19.777630
17.550281
22.307523
17.377610
25.305346
20.128095
27.998002
27.629682
22.208576
12.982348
18.871135
14.714830
13.625031
11.204714
15.094192
11.626972
12.698277
13.813211
11.494155
1.054106
4.545699
9.343655
9.211256
1.083442
6.671725
7.573939
10.733241
0.003006
6.584399
5.660599
11.697801
-1.934761
8.228461
4.149649
12.302986
-0.818104
9.939641
5.337157
12.293032
0.321059
7.914574
9.394695
10.177812
1.666947
7.844562
9.760971
10.492945
3.159941
10.523703
11.399728
11.312885
3.389979
8.198212
11.570761
10.939522
21.329418
22.884049
3.785224
5.787901
4.299069
7.750774
10.690371
10.501780
23.300075
28.302990
4.268838
5.507284
2.521271
14.647165
8.269261
11.406357
22.625234
30.186489
5.366851
11.389157
21.315011
35.288237
2.529843
9.694413
20.669538
32.227614
3.220427
10.688330
18.222237
29.085276
2.279615
11.436393
16.387827
33.113758
0.278855
8.879887
13.288685
27.469004
1.853011
7.691925
9.636543
11.928743
10.853784
14.667560
16.302567
28.180568
3.345337
7.436204
10.096776
14.557813
14.723052
25.429555
4.042486
8.332912
9.978576
24.225784
3.985152
7.441185
8.969203
25.376839
4.602002
4.056337
4.099687
5.335503
8.760887
36.400379
5.479912
5.019177
7.742718
26.818126
6.799293
6.219803
8.115552
26.741791
7.950122
8.288249
8.560478
22.551421
8.818688
17.954258
10.131072
15.367727
10.704823
10.313765
10.477948
10.808743
11.272622
11.778795
12.950399
12.926812
15.817897
15.071204
13.954024
18.060487
7.743540
-0.803279
8.359080
0.640672
9.240575
3.834917
8.484138
4.236786
10.043148
7.492711
5.432366
8.465776
0.683225
9.335790
-1.266495
-2.919283
16.284752
23.841039
0.691512
-4.425386
17.285005
20.268431
2.887621
-1.702400
18.092979
13.774897
7.799511
-1.923730
13.751226
12.305128
9.102372
-1.410785
11.881471
16.785375
9.325341
-0.779349
15.323787
12.500992
11.844702
0.044746
9.854117
0.828982
11.677312
2.646765
1.656773
3.939461
12.716082
4.057858
12.015885
11.592515
8.956424
5.266548
8.244079
6.040019
9.218525
7.479458
19.211837
18.538942
14.332091
15.793417
14.861964
18.770022
12.457412
21.332048
16.276380
18.980294
14.950253
19.683661
13.993921
26.405581
17.574700
24.341955
20.425874
26.469732
7.078250
10.082180
5.906504
9.492802
4.023520
6.622027
1.698040
2.467564
-0.358383
0.345739
-0.516634
0.398612
2.382563
2.878496
4.614906
10.594379
5.445927
13.298963
8.200760
6.532996
15.702579
15.281222
17.867385
12.328337
21.971534
12.512714
17.077496
11.836027
20.811290
14.467099
15.518697
18.492904
14.996303
12.965470
12.371610
14.001629
7.899753
12.603455
6.482257
11.347663
4.364177
10.114619
3.154874
9.108211
2.715752
10.499008
2.254097
12.779737
1.160525
11.404184
-0.560167
11.135721
-2.118099
10.162244
-4.082430
8.681584
-4.103206
8.546831
-3.476625
8.861013
-2.504585
8.384513
-1.841820
5.917273
-1.700848
6.058009
0.467632
6.802793
1.156550
6.592619
1.468064
5.028190
2.128356
4.850505
1.995942
3.350428
12.392771
22.095021
11.770041
21.316728
13.453041
21.445618
15.077877
24.923522
16.023248
23.398074
17.077523
24.971586
18.115548
17.074690
18.361240
12.835256
13.429184
14.008785
10.936312
13.834201
12.154821
9.546324
13.522440
9.620299
15.355727
7.899610
4.003591
5.120532
8.412262
6.997763
2.611888
6.087424
7.835636
7.667893
2.483291
6.485993
6.697548
6.721712
1.515313
7.528137
5.827616
12.332821
1.059854
7.215838
7.364233
13.360904
1.647258
9.369636
8.468927
11.824759
1.891305
5.885304
6.005491
8.878268
11.558733
12.298965
2.824916
6.533174
6.324106
13.943739
13.930729
11.793612
3.578400
5.635796
4.429419
9.250467
16.663041
10.358361
4.144615
5.463409
2.176257
6.508376
10.045836
10.345538
1.356490
3.142432
7.227931
11.575927
17.907748
23.767988
4.604049
10.620595
21.680753
31.750082
2.376921
10.175337
19.273983
30.033354
1.216771
10.304037
15.948079
29.122949
-0.243888
11.245189
15.166569
33.811293
0.086890
9.133811
19.367279
26.335956
1.423938
6.867506
16.172052
27.205415
4.643493
7.507869
14.108046
24.970130
4.816574
8.015522
14.721129
24.731663
4.692384
7.728330
11.085861
24.664040
5.020410
2.925070
4.858637
5.828945
10.069798
32.834945
5.864395
5.836641
9.546671
32.425320
7.047120
6.564433
7.826027
23.521634
8.828162
8.117689
9.127053
20.265511
9.922638
17.642125
11.618980
14.884579
11.923840
9.455967
11.375819
9.046256
11.770988
9.907837
11.106588
11.237745
13.206211
15.536651
14.576824
16.902812
6.566994
2.912843
7.967381
0.281312
9.732518
0.091054
10.115842
2.126965
9.634501
3.149255
10.216178
3.454091
6.313341
5.248495
1.280150
0.984475
0.768892
-2.646282
1.027638
-3.764983
8.508361
3.903421
-0.521800
-1.894532
8.883149
1.738053
-1.499918
-1.637417
8.836637
-1.285463
10.750218
0.371703
11.472539
0.950686
-0.959108
4.241273
11.089733
9.952278
13.040955
17.357040
12.445704
8.592822
7.964854
6.668439
9.178283
6.302836
10.237182
6.926269
7.089822
7.504562
9.686418
9.156770
18.127007
18.449409
18.829914
17.146368
21.176385
16.923182
15.098678
12.578944
18.449867
18.869651
17.878844
14.697600
15.595479
18.842205
15.408700
22.936251
18.316850
23.472924
19.904318
22.817715
20.594238
25.938998
9.383360
11.216364
6.960536
9.937740
5.945984
8.134152
5.253853
4.815047
4.366354
1.496120
0.962660
0.886751
1.686092
0.793605
2.825297
2.980477
3.402917
7.096471
4.913833
7.433358
7.719353
12.032026
5.905115
11.341134
4.317446
10.819783
3.030056
14.374630
1.251939
12.768769
-0.809347
10.819209
-0.103279
9.239213
-1.442618
8.751950
-3.149337
8.182554
-3.930997
10.254895
-3.357119
9.432152
-2.627117
8.370356
-2.414340
6.501707
-2.233308
6.374102
-0.728674
7.924133
0.670897
6.756158
0.806811
5.975752
0.969596
6.228433
1.356983
5.970750
0.268328
6.261053
-1.119771
4.975951
-0.063223
6.808227
2.539565
13.166815
17.352671
20.226740
17.501123
22.468809
16.454613
19.669471
12.895901
19.499954
13.863284
21.387391
12.202049
24.099782
15.367176
26.414156
13.966446
25.538184
15.809409
14.580475
9.328842
7.439341
13.462976
11.953562
16.413461
11.573726
12.700577
12.672023
11.202600
12.421848
13.404504
11.000164
14.876661
9.931209
14.176285
7.545022
10.007924
10.687257
11.391560
7.387236
3.049290
7.175604
7.865863
7.761919
2.786548
6.014866
8.438536
9.229018
9.732308
7.582534
3.005546
6.506121
7.126679
8.699410
8.963236
11.935078
3.488980
7.133456
7.816002
12.753350
2.548883
6.642021
10.705082
11.393668
2.573345
4.477572
6.552949
7.860534
18.263463
12.416860
3.066450
4.704580
6.806179
7.431268
16.289264
11.847072
4.299433
4.600360
5.521580
6.428551
17.845311
12.412347
11.673736
12.472717
7.324569
11.741673
5.922830
11.051249
20.809616
29.891158
4.392985
10.878179
19.649118
30.778102
3.818533
9.423247
17.297599
38.256708
2.993753
9.037396
16.967128
32.173889
2.637514
8.047030
16.350206
19.554839
3.632001
5.115269
16.101614
26.475990
4.506958
4.320754
14.257068
26.613256
4.324051
5.472619
14.015559
25.837054
5.617657
3.767193
4.793163
6.959352
12.932882
29.369624
5.979026
4.730115
10.706336
25.539941
5.631887
5.498331
9.653073
26.592197
9.014134
21.487644
10.084151
21.207837
10.334970
16.241963
9.314894
15.989171
12.015635
13.680222
12.987544
10.983200
13.567590
11.690504
14.980228
11.352488
12.200429
12.688194
-6.993116
-6.239421
-7.682548
-6.546892
-8.238714
-7.292510
9.254360
4.441051
9.682118
2.791422
10.248722
1.945598
11.731881
3.109115
10.715760
3.926595
8.103800
4.255780
9.771510
3.472671
7.300183
2.991819
8.250273
4.952313
8.060266
7.368910
-0.853493
-4.179092
-1.830686
-3.701832
8.292482
6.930703
-2.708032
-3.109545
9.346737
7.586832
0.366459
-2.561117
5.800216
-0.357426
8.651568
0.439018
-0.465078
4.767827
9.714022
9.474662
12.309924
11.626291
11.641808
9.426470
8.725426
6.187448
9.976678
6.606049
11.537928
4.808585
5.956207
7.007414
12.969960
6.668367
10.117923
9.809767
18.982161
15.845119
18.296965
13.845435
19.519446
13.703651
26.609558
13.678591
19.525749
13.665817
17.573713
17.601620
16.559714
21.418989
19.123830
23.726229
19.520946
21.618213
20.751339
25.491090
-6.759380
-8.383118
-6.465463
-8.049129
-5.892527
-7.535049
7.816544
11.323314
6.353716
9.799955
7.668226
7.881007
5.979472
6.963657
5.249507
6.745446
2.623050
2.772175
2.998933
2.296231
3.459752
3.508120
9.859926
10.735580
6.987119
9.923837
2.609842
13.470248
-1.405801
10.556988
-2.932460
8.050878
-1.970520
9.056734
-3.675989
12.929373
-4.265113
10.174617
-3.690800
11.969650
-4.312127
11.280054
-3.981539
5.306606
-3.421126
5.269082
-1.535680
7.190389
0.125056
6.333976
0.585587
6.612290
0.578579
6.931529
0.224809
7.287653
-0.220321
6.959805
-0.619757
6.356443
0.200300
6.702535
2.687077
12.408565
22.320603
23.122989
19.694960
28.010365
18.645897
21.994736
15.632259
20.083912